"""
=== Bond length ||R|| dependence of the Frobenius norm of the operator ||O(R)|| ===
-
- ||R - Rmin|| [Ang]  ||O(R)|| [eV]  max(|O(R)|) [eV]
    - ||O(R)|| ~ ||O(Rmin)|| exp(-(||R|| - ||Rmin||) / τ).
    - ||R||       : Bond length (the 2-norm of lattice vector).
    - ||O(R)||    : The Frobenius norm of the operator.
    - ||Rmin||    : Minimum bond length.
    - ||O(Rmin)|| : The Frobenius norm of the operator at R = Rmin.
    - τ           : The decay length [Ang].
"""
# created by pw2cw 
# written on 25Jul2025 at 14:45:41
# ||Rmin||    = 0.00000000   [eV] 
# ||O(Rmin)|| = 4.25193258   [eV] 
# τ           = 5.83040048   [Ang] 
  0.00000000E+00   4.25193258E+00   3.00657036E+00  
  2.43500000E+00   5.22882133E-01   2.84861627E-01  
  2.43500000E+00   5.22882133E-01   2.84861627E-01  
  2.43500000E+00   3.02503899E+00   3.00657720E+00  
  2.43500000E+00   3.02503899E+00   3.00657720E+00  
  2.43500000E+00   3.02503899E+00   3.00657720E+00  
  2.43500000E+00   3.02503899E+00   3.00657720E+00  
  4.21754372E+00   8.22446675E-02   5.67238870E-02  
  4.21754372E+00   8.22446675E-02   5.67238870E-02  
  4.21754372E+00   8.22446675E-02   5.67238870E-02  
  4.21754372E+00   8.22446675E-02   5.67238870E-02  
  4.21754372E+00   2.97149522E-01   2.84868434E-01  
  4.21754372E+00   2.97149522E-01   2.84868434E-01  
  4.87000000E+00   3.17640545E-02   2.04045967E-02  
  4.87000000E+00   3.17640545E-02   2.04045967E-02  
  4.87000000E+00   3.36359951E-02   2.04046012E-02  
  4.87000000E+00   3.36359951E-02   2.04046012E-02  
  4.87000000E+00   3.36359951E-02   2.04046012E-02  
  4.87000000E+00   3.36359951E-02   2.04046012E-02  
  6.44240444E+00   1.01032952E-02   7.60622009E-03  
  6.44240444E+00   1.01032952E-02   7.60622009E-03  
  6.44240444E+00   1.01032952E-02   7.60622009E-03  
  6.44240444E+00   1.01032952E-02   7.60622009E-03  
  6.44240444E+00   1.07159615E-02   9.38958719E-03  
  6.44240444E+00   1.07159615E-02   9.38958719E-03  
  6.44240444E+00   1.07159615E-02   9.38958719E-03  
  6.44240444E+00   1.07159615E-02   9.38958719E-03  
  6.44240444E+00   2.72748790E-02   2.66966748E-02  
  6.44240444E+00   2.72748790E-02   2.66966748E-02  
  6.44240444E+00   2.72748790E-02   2.66966748E-02  
  6.44240444E+00   2.72748790E-02   2.66966748E-02  
  7.30500000E+00   4.98167935E-03   2.75152596E-03  
  7.30500000E+00   4.98167935E-03   2.75152596E-03  
  7.30500000E+00   8.54232045E-03   7.60445759E-03  
  7.30500000E+00   8.54232045E-03   7.60445759E-03  
  7.30500000E+00   8.54232045E-03   7.60445759E-03  
  7.30500000E+00   8.54232045E-03   7.60445759E-03  
  8.43508743E+00   2.24967127E-03   1.53283375E-03  
  8.43508743E+00   2.24967127E-03   1.53283375E-03  
  8.43508743E+00   2.24967127E-03   1.53283375E-03  
  8.43508743E+00   2.24967127E-03   1.53283375E-03  
  8.43508743E+00   4.89726136E-03   4.22832407E-03  
  8.43508743E+00   4.89726136E-03   4.22832407E-03  
  8.77951736E+00   9.83176051E-04   6.73927982E-04  
  8.77951736E+00   9.83176051E-04   6.73927982E-04  
  8.77951736E+00   1.44633353E-03   9.36823931E-04  
  8.77951736E+00   1.44633353E-03   9.36823931E-04  
  8.77951736E+00   1.44633353E-03   9.36823932E-04  
  8.77951736E+00   1.44633353E-03   9.36823932E-04  
  8.77951736E+00   2.39731864E-03   2.19731735E-03  
  8.77951736E+00   2.39731864E-03   2.19731735E-03  
  8.77951736E+00   9.83176051E-04   6.73927982E-04  
  8.77951736E+00   9.83176051E-04   6.73927982E-04  
  8.77951736E+00   2.39731864E-03   2.19731735E-03  
  8.77951736E+00   2.39731864E-03   2.19731735E-03  
  9.74000000E+00   2.27453851E-03   1.38296648E-03  
  9.74000000E+00   2.27453851E-03   1.38296648E-03  
  9.74000000E+00   2.27453851E-03   1.38296648E-03  
  9.74000000E+00   2.27453851E-03   1.38296648E-03  
  9.74000000E+00   2.36274726E-03   1.38296175E-03  
  9.74000000E+00   2.36274726E-03   1.38296175E-03  
  1.06139189E+01   1.68869300E-03   1.66950943E-03  
  1.06139189E+01   1.68869300E-03   1.66950943E-03  
  1.06139189E+01   1.26194675E-03   1.18658786E-03  
  1.06139189E+01   1.26194675E-03   1.18658786E-03  
  1.06139189E+01   1.26194675E-03   1.18658786E-03  
  1.06139189E+01   1.26194675E-03   1.18658786E-03  
  1.06139189E+01   1.68869300E-03   1.66950943E-03  
  1.06139189E+01   1.68869300E-03   1.66950943E-03  
  1.06139189E+01   1.77489977E-03   1.76993586E-03  
  1.06139189E+01   1.77489977E-03   1.76993586E-03  
  1.06139189E+01   1.77489977E-03   1.76993586E-03  
  1.06139189E+01   1.77489977E-03   1.76993586E-03  
  1.11585718E+01   1.42183147E-03   9.38517928E-04  
  1.11585718E+01   1.42183147E-03   9.38517928E-04  
  1.11585718E+01   1.42183147E-03   9.38517929E-04  
  1.11585718E+01   1.42183147E-03   9.38517929E-04  
  1.11585718E+01   1.51125471E-03   1.16073662E-03  
  1.11585718E+01   1.51125471E-03   1.16073662E-03  
  1.11585718E+01   1.51125471E-03   1.16073662E-03  
  1.11585718E+01   1.51125471E-03   1.16073662E-03  
  1.11585718E+01   1.61275898E-03   1.35323603E-03  
  1.11585718E+01   1.61275898E-03   1.35323603E-03  
  1.11585718E+01   1.61275898E-03   1.35323603E-03  
  1.11585718E+01   1.61275898E-03   1.35323603E-03  
  1.21750000E+01   1.86002270E-03   1.16123962E-03  
  1.21750000E+01   1.86002270E-03   1.16123962E-03  
  1.21750000E+01   1.86002270E-03   1.16123962E-03  
  1.21750000E+01   1.86002270E-03   1.16123962E-03  
  1.21750000E+01   2.33745482E-03   1.35332792E-03  
  1.21750000E+01   2.33745482E-03   1.35332792E-03  
  1.26526311E+01   2.12621002E-03   1.66925270E-03  
  1.26526311E+01   2.12621002E-03   1.66925270E-03  
  1.26526311E+01   2.12621002E-03   1.66925270E-03  
  1.26526311E+01   2.12621002E-03   1.66925270E-03  
  1.26526311E+01   2.65246868E-03   1.95495711E-03  
  1.26526311E+01   2.65246868E-03   1.95495711E-03  
  1.28848089E+01   7.21817223E-04   4.20802598E-04  
  1.28848089E+01   7.21817223E-04   4.20802598E-04  
  1.28848089E+01   7.21817224E-04   4.20802600E-04  
  1.28848089E+01   7.21817224E-04   4.20802600E-04  
  1.28848089E+01   1.49795462E-03   1.28540166E-03  
  1.28848089E+01   1.49795462E-03   1.28540166E-03  
  1.28848089E+01   1.49795462E-03   1.28540166E-03  
  1.28848089E+01   1.49795462E-03   1.28540166E-03  
  1.28848089E+01   1.73292934E-03   1.66933185E-03  
  1.28848089E+01   1.73292934E-03   1.66933185E-03  
  1.28848089E+01   1.73292934E-03   1.66933185E-03  
  1.28848089E+01   1.73292934E-03   1.66933185E-03  
  1.35575062E+01   8.78150860E-04   5.57613092E-04  
  1.35575062E+01   8.78150860E-04   5.57613092E-04  
  1.35575062E+01   9.33269419E-04   6.17776592E-04  
  1.35575062E+01   9.33269419E-04   6.17776592E-04  
  1.35575062E+01   9.33269421E-04   6.17776595E-04  
  1.35575062E+01   9.33269421E-04   6.17776595E-04  
  1.35575062E+01   8.78150856E-04   5.57613087E-04  
  1.35575062E+01   8.78150856E-04   5.57613087E-04  
  1.35575062E+01   2.71612402E-03   2.25665916E-03  
  1.35575062E+01   2.71612402E-03   2.25665916E-03  
  1.35575062E+01   2.71612402E-03   2.25665916E-03  
  1.35575062E+01   2.71612402E-03   2.25665916E-03  
  1.46100000E+01   6.62173424E-04   4.28428797E-04  
  1.46100000E+01   6.62173424E-04   4.28428797E-04  
  1.46100000E+01   9.54882871E-04   5.57814131E-04  
  1.46100000E+01   9.54882871E-04   5.57814131E-04  
  1.46100000E+01   9.54882873E-04   5.57814131E-04  
  1.46100000E+01   9.54882873E-04   5.57814131E-04  
  1.48115268E+01   1.61497626E-03   1.36094765E-03  
  1.48115268E+01   1.61497626E-03   1.36094765E-03  
  1.48115268E+01   1.61497626E-03   1.36094765E-03  
  1.48115268E+01   1.61497626E-03   1.36094765E-03  
  1.48115268E+01   2.15919505E-03   1.95397134E-03  
  1.48115268E+01   2.15919505E-03   1.95397134E-03  
  1.48115268E+01   1.52292588E-03   1.28628603E-03  
  1.48115268E+01   1.52292588E-03   1.28628603E-03  
  1.48115268E+01   1.52292588E-03   1.28628604E-03  
  1.48115268E+01   1.52292588E-03   1.28628604E-03  
  1.48115268E+01   2.15919505E-03   1.95397134E-03  
  1.48115268E+01   2.15919505E-03   1.95397134E-03  
  1.52065701E+01   1.47252933E-03   9.64584786E-04  
  1.52065701E+01   1.47252933E-03   9.64584786E-04  
  1.52065701E+01   1.47252933E-03   9.64584786E-04  
  1.52065701E+01   1.47252933E-03   9.64584786E-04  
  1.52065701E+01   2.67973848E-03   2.25761424E-03  
  1.52065701E+01   2.67973848E-03   2.25761424E-03  
  1.52065701E+01   2.67973848E-03   2.25761424E-03  
  1.52065701E+01   2.67973848E-03   2.25761424E-03  
  1.52065701E+01   1.82229340E-03   1.20547628E-03  
  1.52065701E+01   1.82229340E-03   1.20547628E-03  
  1.52065701E+01   1.82229339E-03   1.20547628E-03  
  1.52065701E+01   1.82229339E-03   1.20547628E-03  
  1.59673628E+01   2.47262085E-03   2.25748253E-03  
  1.59673628E+01   2.47262085E-03   2.25748253E-03  
  1.59673628E+01   9.61632467E-04   6.63757871E-04  
  1.59673628E+01   9.61632467E-04   6.63757871E-04  
  1.59673628E+01   9.61632467E-04   6.63757870E-04  
  1.59673628E+01   9.61632467E-04   6.63757870E-04  
  1.59673628E+01   1.13469917E-03   6.63751184E-04  
  1.59673628E+01   1.13469917E-03   6.63751184E-04  
  1.59673628E+01   1.13469917E-03   6.63751183E-04  
  1.59673628E+01   1.13469917E-03   6.63751183E-04  
  1.59673628E+01   2.47262085E-03   2.25748253E-03  
  1.59673628E+01   2.47262085E-03   2.25748253E-03  
  1.68701749E+01   2.36025326E-03   1.36002931E-03  
  1.68701749E+01   2.36025326E-03   1.36002931E-03  
  1.68701749E+01   2.77097051E-03   1.99806070E-03  
  1.68701749E+01   2.77097051E-03   1.99806070E-03  
  1.68701749E+01   2.77097051E-03   1.99806070E-03  
  1.68701749E+01   2.77097051E-03   1.99806070E-03  
  1.70450000E+01   5.66256824E-04   4.71591797E-04  
  1.70450000E+01   5.66256824E-04   4.71591797E-04  
  1.70450000E+01   5.66256824E-04   4.71591796E-04  
  1.70450000E+01   5.66256824E-04   4.71591796E-04  
  1.70450000E+01   6.01534518E-04   4.89175331E-04  
  1.70450000E+01   6.01534518E-04   4.89175331E-04  
  1.70450000E+01   6.01534521E-04   4.89175333E-04  
  1.70450000E+01   6.01534521E-04   4.89175333E-04  
  1.70450000E+01   1.14613970E-03   7.21334940E-04  
  1.70450000E+01   1.14613970E-03   7.21334940E-04  
  1.70450000E+01   1.90677904E-03   1.53650911E-03  
  1.70450000E+01   1.90677904E-03   1.53650911E-03  
  1.70450000E+01   1.90677904E-03   1.53650911E-03  
  1.70450000E+01   1.90677904E-03   1.53650911E-03  
  1.70450000E+01   2.35092028E-03   1.99818077E-03  
  1.70450000E+01   2.35092028E-03   1.99818077E-03  
  1.70450000E+01   2.35092028E-03   1.99818077E-03  
  1.70450000E+01   2.35092028E-03   1.99818077E-03  
  1.75590347E+01   9.71591759E-04   5.90227928E-04  
  1.75590347E+01   9.71591759E-04   5.90227928E-04  
  1.75590347E+01   1.17023900E-03   7.06800929E-04  
  1.75590347E+01   1.17023900E-03   7.06800929E-04  
  1.75590347E+01   1.72373951E-03   1.20590560E-03  
  1.75590347E+01   1.72373951E-03   1.20590560E-03  
  1.75590347E+01   1.72373951E-03   1.20590560E-03  
  1.75590347E+01   1.72373951E-03   1.20590560E-03  
  1.75590347E+01   9.71591759E-04   5.90227929E-04  
  1.75590347E+01   9.71591759E-04   5.90227929E-04  
  1.75590347E+01   1.17023900E-03   7.06800928E-04  
  1.75590347E+01   1.17023900E-03   7.06800928E-04  
  1.83838468E+01   1.15934101E-03   7.11291287E-04  
  1.83838468E+01   1.15934101E-03   7.11291287E-04  
  1.83838468E+01   1.69698139E-03   1.31596388E-03  
  1.83838468E+01   1.69698139E-03   1.31596388E-03  
  1.83838468E+01   1.69698139E-03   1.31596389E-03  
  1.83838468E+01   1.69698139E-03   1.31596389E-03  
  1.83838468E+01   2.04738923E-03   1.53627749E-03  
  1.83838468E+01   2.04738923E-03   1.53627749E-03  
  1.83838468E+01   2.04738924E-03   1.53627750E-03  
  1.83838468E+01   2.04738924E-03   1.53627750E-03  
  1.83838468E+01   1.15934101E-03   7.11291286E-04  
  1.83838468E+01   1.15934101E-03   7.11291286E-04  
  1.90179580E+01   6.51206592E-04   4.77413478E-04  
  1.90179580E+01   6.51206592E-04   4.77413478E-04  
  1.90179580E+01   6.51206592E-04   4.77413479E-04  
  1.90179580E+01   6.51206592E-04   4.77413479E-04  
  1.90179580E+01   6.70360191E-04   4.40412378E-04  
  1.90179580E+01   6.70360191E-04   4.40412378E-04  
  1.90179580E+01   6.70360191E-04   4.40412379E-04  
  1.90179580E+01   6.70360191E-04   4.40412379E-04  
  1.90179580E+01   2.07388994E-03   1.99793819E-03  
  1.90179580E+01   2.07388994E-03   1.99793819E-03  
  1.90179580E+01   2.07388995E-03   1.99793819E-03  
  1.90179580E+01   2.07388995E-03   1.99793819E-03  
  1.93272133E+01   8.92101935E-04   7.06647293E-04  
  1.93272133E+01   8.92101935E-04   7.06647293E-04  
  1.93272133E+01   1.11750325E-03   1.06163395E-03  
  1.93272133E+01   1.11750325E-03   1.06163395E-03  
  1.93272133E+01   7.83554560E-04   5.21618299E-04  
  1.93272133E+01   7.83554560E-04   5.21618299E-04  
  1.93272133E+01   7.83554561E-04   5.21618301E-04  
  1.93272133E+01   7.83554561E-04   5.21618301E-04  
  1.93272133E+01   8.92101935E-04   7.06647293E-04  
  1.93272133E+01   8.92101935E-04   7.06647293E-04  
  1.93272133E+01   1.11750325E-03   1.06163395E-03  
  1.93272133E+01   1.11750325E-03   1.06163395E-03  
  1.94800000E+01   1.90644558E-03   1.22204287E-03  
  1.94800000E+01   1.90644558E-03   1.22204287E-03  
  1.94800000E+01   2.33135769E-03   1.53622852E-03  
  1.94800000E+01   2.33135769E-03   1.53622852E-03  
  1.94800000E+01   2.33135769E-03   1.53622853E-03  
  1.94800000E+01   2.33135769E-03   1.53622853E-03  
  1.99313340E+01   7.48097395E-04   7.06997538E-04  
  1.99313340E+01   7.48097395E-04   7.06997538E-04  
  1.99313340E+01   7.48097396E-04   7.06997539E-04  
  1.99313340E+01   7.48097396E-04   7.06997539E-04  
  1.99313340E+01   9.78732377E-04   9.05680847E-04  
  1.99313340E+01   9.78732377E-04   9.05680847E-04  
  1.99313340E+01   9.78732380E-04   9.05680849E-04  
  1.99313340E+01   9.78732380E-04   9.05680849E-04  
  1.99313340E+01   1.69271740E-03   1.31588893E-03  
  1.99313340E+01   1.69271740E-03   1.31588893E-03  
  1.99313340E+01   1.69271740E-03   1.31588894E-03  
  1.99313340E+01   1.69271740E-03   1.31588894E-03  
  2.08046491E+01   4.07118321E-04   2.97240410E-04  
  2.08046491E+01   4.07118321E-04   2.97240410E-04  
  2.08046491E+01   4.07118322E-04   2.97240410E-04  
  2.08046491E+01   4.07118322E-04   2.97240410E-04  
  2.08046491E+01   1.31700192E-03   1.17718436E-03  
  2.08046491E+01   1.31700192E-03   1.17718436E-03  
  2.08046491E+01   1.31700192E-03   1.17718436E-03  
  2.08046491E+01   1.31700192E-03   1.17718436E-03  
  2.08046491E+01   1.39732573E-03   1.31604712E-03  
  2.08046491E+01   1.39732573E-03   1.31604712E-03  
  2.08046491E+01   1.39732573E-03   1.31604712E-03  
  2.08046491E+01   1.39732573E-03   1.31604712E-03  
  2.10877186E+01   1.13410657E-03   6.83465752E-04  
  2.10877186E+01   1.13410657E-03   6.83465752E-04  
  2.10877186E+01   1.46799635E-03   1.04349375E-03  
  2.10877186E+01   1.46799635E-03   1.04349375E-03  
  2.10877186E+01   1.46799635E-03   1.04349375E-03  
  2.10877186E+01   1.46799635E-03   1.04349375E-03  
  2.12278379E+01   6.99645472E-04   4.39981155E-04  
  2.12278379E+01   6.99645472E-04   4.39981155E-04  
  2.12278379E+01   6.90952986E-04   3.83192220E-04  
  2.12278379E+01   6.90952986E-04   3.83192220E-04  
  2.12278379E+01   6.90952986E-04   3.83192220E-04  
  2.12278379E+01   6.90952986E-04   3.83192220E-04  
  2.12278379E+01   6.99645472E-04   4.39981156E-04  
  2.12278379E+01   6.99645472E-04   4.39981156E-04  
  2.12278379E+01   1.28656122E-03   1.04364337E-03  
  2.12278379E+01   1.28656122E-03   1.04364337E-03  
  2.12278379E+01   1.28656122E-03   1.04364337E-03  
  2.12278379E+01   1.28656122E-03   1.04364337E-03  
  2.16427534E+01   1.07696288E-03   1.06133321E-03  
  2.16427534E+01   1.07696288E-03   1.06133321E-03  
  2.16427534E+01   4.60539746E-04   3.61166305E-04  
  2.16427534E+01   4.60539746E-04   3.61166305E-04  
  2.16427534E+01   4.60539749E-04   3.61166308E-04  
  2.16427534E+01   4.60539749E-04   3.61166308E-04  
  2.16427534E+01   1.07696289E-03   1.06133321E-03  
  2.16427534E+01   1.07696289E-03   1.06133321E-03  
  2.16427534E+01   9.84530286E-04   8.16722609E-04  
  2.16427534E+01   9.84530286E-04   8.16722609E-04  
  2.16427534E+01   9.84530287E-04   8.16722609E-04  
  2.16427534E+01   9.84530287E-04   8.16722609E-04  
  2.19150000E+01   1.35601629E-03   8.50658478E-04  
  2.19150000E+01   1.35601629E-03   8.50658478E-04  
  2.19150000E+01   2.05936036E-03   1.64478865E-03  
  2.19150000E+01   2.05936036E-03   1.64478865E-03  
  2.19150000E+01   2.05936036E-03   1.64478865E-03  
  2.19150000E+01   2.05936036E-03   1.64478865E-03  
  2.23171436E+01   6.40610338E-04   4.67677340E-04  
  2.23171436E+01   6.40610338E-04   4.67677340E-04  
  2.23171436E+01   1.07862365E-03   1.02461102E-03  
  2.23171436E+01   1.07862365E-03   1.02461102E-03  
  2.23171436E+01   1.07862365E-03   1.02461102E-03  
  2.23171436E+01   1.07862365E-03   1.02461102E-03  
  2.23171436E+01   1.45395857E-03   1.17714808E-03  
  2.23171436E+01   1.45395857E-03   1.17714808E-03  
  2.23171436E+01   1.45395857E-03   1.17714808E-03  
  2.23171436E+01   1.45395857E-03   1.17714808E-03  
  2.23171436E+01   6.40610339E-04   4.67677340E-04  
  2.23171436E+01   6.40610339E-04   4.67677340E-04  
  2.32284196E+01   6.44226479E-04   3.99865299E-04  
  2.32284196E+01   6.44226479E-04   3.99865299E-04  
  2.32284196E+01   6.48073040E-04   3.55541463E-04  
  2.32284196E+01   6.48073040E-04   3.55541463E-04  
  2.32284196E+01   6.48073040E-04   3.55541462E-04  
  2.32284196E+01   6.48073040E-04   3.55541462E-04  
  2.32284196E+01   9.80084391E-04   5.88573098E-04  
  2.32284196E+01   9.80084391E-04   5.88573098E-04  
  2.32284196E+01   9.80084392E-04   5.88573098E-04  
  2.32284196E+01   9.80084392E-04   5.88573098E-04  
  2.32284196E+01   1.16939689E-03   1.04285098E-03  
  2.32284196E+01   1.16939689E-03   1.04285098E-03  
  2.32284196E+01   6.44226479E-04   3.99865299E-04  
  2.32284196E+01   6.44226479E-04   3.99865299E-04  
  2.32284196E+01   9.80096017E-04   5.88567980E-04  
  2.32284196E+01   9.80096017E-04   5.88567980E-04  
  2.32284196E+01   9.80096017E-04   5.88567980E-04  
  2.32284196E+01   9.80096017E-04   5.88567980E-04  
  2.32284196E+01   1.13851199E-03   8.22369965E-04  
  2.32284196E+01   1.13851199E-03   8.22369965E-04  
  2.32284196E+01   1.13851199E-03   8.22369965E-04  
  2.32284196E+01   1.13851199E-03   8.22369965E-04  
  2.32284196E+01   1.16939690E-03   1.04285098E-03  
  2.32284196E+01   1.16939690E-03   1.04285098E-03  
  2.34822896E+01   5.61355398E-04   3.65702624E-04  
  2.34822896E+01   5.61355398E-04   3.65702624E-04  
  2.34822896E+01   5.99525175E-04   3.65702772E-04  
  2.34822896E+01   5.99525175E-04   3.65702772E-04  
  2.34822896E+01   1.29712219E-03   1.18859554E-03  
  2.34822896E+01   1.29712219E-03   1.18859554E-03  
  2.34822896E+01   1.29712219E-03   1.18859554E-03  
  2.34822896E+01   1.29712219E-03   1.18859554E-03  
  2.34822896E+01   5.61355398E-04   3.65702623E-04  
  2.34822896E+01   5.61355398E-04   3.65702623E-04  
  2.34822896E+01   5.99525176E-04   3.65702770E-04  
  2.34822896E+01   5.99525176E-04   3.65702770E-04  
  2.39819687E+01   5.34921618E-04   4.08408821E-04  
  2.39819687E+01   5.34921618E-04   4.08408821E-04  
  2.39819687E+01   5.34921893E-04   4.08409201E-04  
  2.39819687E+01   5.34921893E-04   4.08409201E-04  
  2.39819687E+01   8.56727102E-04   5.94171912E-04  
  2.39819687E+01   8.56727102E-04   5.94171912E-04  
  2.39819687E+01   8.56727102E-04   5.94171912E-04  
  2.39819687E+01   8.56727102E-04   5.94171912E-04  
  2.39819687E+01   5.34921618E-04   4.08408820E-04  
  2.39819687E+01   5.34921618E-04   4.08408820E-04  
  2.39819687E+01   5.34921892E-04   4.08409201E-04  
  2.39819687E+01   5.34921892E-04   4.08409201E-04  
  2.53052623E+01   6.97108151E-04   5.13906832E-04  
  2.53052623E+01   6.97108151E-04   5.13906832E-04  
  2.53052623E+01   6.97108153E-04   5.13906835E-04  
  2.53052623E+01   6.97108153E-04   5.13906835E-04  
  2.53052623E+01   7.05263038E-04   3.99161808E-04  
  2.53052623E+01   7.05263038E-04   3.99161808E-04  
  2.54221463E+01   2.81559955E-04   1.75195882E-04  
  2.54221463E+01   2.81559955E-04   1.75195882E-04  
  2.54221463E+01   2.81559956E-04   1.75195883E-04  
  2.54221463E+01   2.81559956E-04   1.75195883E-04  
  2.54221463E+01   2.81560003E-04   1.75195882E-04  
  2.54221463E+01   2.81560003E-04   1.75195882E-04  
  2.54221463E+01   2.81560004E-04   1.75195883E-04  
  2.54221463E+01   2.81560004E-04   1.75195883E-04  
  2.54221463E+01   3.70702701E-04   2.56734386E-04  
  2.54221463E+01   3.70702701E-04   2.56734386E-04  
  2.54221463E+01   3.70702701E-04   2.56734386E-04  
  2.54221463E+01   3.70702701E-04   2.56734386E-04  

