File written on  3Jun2023 at 10:57:26 

calc_only_A  :  F

begin real_lattice
   5.6650000   0.0000000   0.0000000
  -2.8325000   4.9060339   0.0000000
   0.0000000   0.0000000   4.5310000
end real_lattice

begin recip_lattice
   1.1091236   0.6403528   0.0000000
   0.0000000   1.2807056   0.0000000
   0.0000000   0.0000000   1.3867105
end recip_lattice

begin kpoints
   343
    0.00000000    0.00000000    0.00000000
    0.00000000    0.00000000    0.14285714
    0.00000000    0.00000000    0.28571429
    0.00000000    0.00000000    0.42857143
    0.00000000    0.00000000    0.57142857
    0.00000000    0.00000000    0.71428571
    0.00000000    0.00000000    0.85714286
    0.00000000    0.14285714    0.00000000
    0.00000000    0.14285714    0.14285714
    0.00000000    0.14285714    0.28571429
    0.00000000    0.14285714    0.42857143
    0.00000000    0.14285714    0.57142857
    0.00000000    0.14285714    0.71428571
    0.00000000    0.14285714    0.85714286
    0.00000000    0.28571429    0.00000000
    0.00000000    0.28571429    0.14285714
    0.00000000    0.28571429    0.28571429
    0.00000000    0.28571429    0.42857143
    0.00000000    0.28571429    0.57142857
    0.00000000    0.28571429    0.71428571
    0.00000000    0.28571429    0.85714286
    0.00000000    0.42857143    0.00000000
    0.00000000    0.42857143    0.14285714
    0.00000000    0.42857143    0.28571429
    0.00000000    0.42857143    0.42857143
    0.00000000    0.42857143    0.57142857
    0.00000000    0.42857143    0.71428571
    0.00000000    0.42857143    0.85714286
    0.00000000    0.57142857    0.00000000
    0.00000000    0.57142857    0.14285714
    0.00000000    0.57142857    0.28571429
    0.00000000    0.57142857    0.42857143
    0.00000000    0.57142857    0.57142857
    0.00000000    0.57142857    0.71428571
    0.00000000    0.57142857    0.85714286
    0.00000000    0.71428571    0.00000000
    0.00000000    0.71428571    0.14285714
    0.00000000    0.71428571    0.28571429
    0.00000000    0.71428571    0.42857143
    0.00000000    0.71428571    0.57142857
    0.00000000    0.71428571    0.71428571
    0.00000000    0.71428571    0.85714286
    0.00000000    0.85714286    0.00000000
    0.00000000    0.85714286    0.14285714
    0.00000000    0.85714286    0.28571429
    0.00000000    0.85714286    0.42857143
    0.00000000    0.85714286    0.57142857
    0.00000000    0.85714286    0.71428571
    0.00000000    0.85714286    0.85714286
    0.14285714    0.00000000    0.00000000
    0.14285714    0.00000000    0.14285714
    0.14285714    0.00000000    0.28571429
    0.14285714    0.00000000    0.42857143
    0.14285714    0.00000000    0.57142857
    0.14285714    0.00000000    0.71428571
    0.14285714    0.00000000    0.85714286
    0.14285714    0.14285714    0.00000000
    0.14285714    0.14285714    0.14285714
    0.14285714    0.14285714    0.28571429
    0.14285714    0.14285714    0.42857143
    0.14285714    0.14285714    0.57142857
    0.14285714    0.14285714    0.71428571
    0.14285714    0.14285714    0.85714286
    0.14285714    0.28571429    0.00000000
    0.14285714    0.28571429    0.14285714
    0.14285714    0.28571429    0.28571429
    0.14285714    0.28571429    0.42857143
    0.14285714    0.28571429    0.57142857
    0.14285714    0.28571429    0.71428571
    0.14285714    0.28571429    0.85714286
    0.14285714    0.42857143    0.00000000
    0.14285714    0.42857143    0.14285714
    0.14285714    0.42857143    0.28571429
    0.14285714    0.42857143    0.42857143
    0.14285714    0.42857143    0.57142857
    0.14285714    0.42857143    0.71428571
    0.14285714    0.42857143    0.85714286
    0.14285714    0.57142857    0.00000000
    0.14285714    0.57142857    0.14285714
    0.14285714    0.57142857    0.28571429
    0.14285714    0.57142857    0.42857143
    0.14285714    0.57142857    0.57142857
    0.14285714    0.57142857    0.71428571
    0.14285714    0.57142857    0.85714286
    0.14285714    0.71428571    0.00000000
    0.14285714    0.71428571    0.14285714
    0.14285714    0.71428571    0.28571429
    0.14285714    0.71428571    0.42857143
    0.14285714    0.71428571    0.57142857
    0.14285714    0.71428571    0.71428571
    0.14285714    0.71428571    0.85714286
    0.14285714    0.85714286    0.00000000
    0.14285714    0.85714286    0.14285714
    0.14285714    0.85714286    0.28571429
    0.14285714    0.85714286    0.42857143
    0.14285714    0.85714286    0.57142857
    0.14285714    0.85714286    0.71428571
    0.14285714    0.85714286    0.85714286
    0.28571429    0.00000000    0.00000000
    0.28571429    0.00000000    0.14285714
    0.28571429    0.00000000    0.28571429
    0.28571429    0.00000000    0.42857143
    0.28571429    0.00000000    0.57142857
    0.28571429    0.00000000    0.71428571
    0.28571429    0.00000000    0.85714286
    0.28571429    0.14285714    0.00000000
    0.28571429    0.14285714    0.14285714
    0.28571429    0.14285714    0.28571429
    0.28571429    0.14285714    0.42857143
    0.28571429    0.14285714    0.57142857
    0.28571429    0.14285714    0.71428571
    0.28571429    0.14285714    0.85714286
    0.28571429    0.28571429    0.00000000
    0.28571429    0.28571429    0.14285714
    0.28571429    0.28571429    0.28571429
    0.28571429    0.28571429    0.42857143
    0.28571429    0.28571429    0.57142857
    0.28571429    0.28571429    0.71428571
    0.28571429    0.28571429    0.85714286
    0.28571429    0.42857143    0.00000000
    0.28571429    0.42857143    0.14285714
    0.28571429    0.42857143    0.28571429
    0.28571429    0.42857143    0.42857143
    0.28571429    0.42857143    0.57142857
    0.28571429    0.42857143    0.71428571
    0.28571429    0.42857143    0.85714286
    0.28571429    0.57142857    0.00000000
    0.28571429    0.57142857    0.14285714
    0.28571429    0.57142857    0.28571429
    0.28571429    0.57142857    0.42857143
    0.28571429    0.57142857    0.57142857
    0.28571429    0.57142857    0.71428571
    0.28571429    0.57142857    0.85714286
    0.28571429    0.71428571    0.00000000
    0.28571429    0.71428571    0.14285714
    0.28571429    0.71428571    0.28571429
    0.28571429    0.71428571    0.42857143
    0.28571429    0.71428571    0.57142857
    0.28571429    0.71428571    0.71428571
    0.28571429    0.71428571    0.85714286
    0.28571429    0.85714286    0.00000000
    0.28571429    0.85714286    0.14285714
    0.28571429    0.85714286    0.28571429
    0.28571429    0.85714286    0.42857143
    0.28571429    0.85714286    0.57142857
    0.28571429    0.85714286    0.71428571
    0.28571429    0.85714286    0.85714286
    0.42857143    0.00000000    0.00000000
    0.42857143    0.00000000    0.14285714
    0.42857143    0.00000000    0.28571429
    0.42857143    0.00000000    0.42857143
    0.42857143    0.00000000    0.57142857
    0.42857143    0.00000000    0.71428571
    0.42857143    0.00000000    0.85714286
    0.42857143    0.14285714    0.00000000
    0.42857143    0.14285714    0.14285714
    0.42857143    0.14285714    0.28571429
    0.42857143    0.14285714    0.42857143
    0.42857143    0.14285714    0.57142857
    0.42857143    0.14285714    0.71428571
    0.42857143    0.14285714    0.85714286
    0.42857143    0.28571429    0.00000000
    0.42857143    0.28571429    0.14285714
    0.42857143    0.28571429    0.28571429
    0.42857143    0.28571429    0.42857143
    0.42857143    0.28571429    0.57142857
    0.42857143    0.28571429    0.71428571
    0.42857143    0.28571429    0.85714286
    0.42857143    0.42857143    0.00000000
    0.42857143    0.42857143    0.14285714
    0.42857143    0.42857143    0.28571429
    0.42857143    0.42857143    0.42857143
    0.42857143    0.42857143    0.57142857
    0.42857143    0.42857143    0.71428571
    0.42857143    0.42857143    0.85714286
    0.42857143    0.57142857    0.00000000
    0.42857143    0.57142857    0.14285714
    0.42857143    0.57142857    0.28571429
    0.42857143    0.57142857    0.42857143
    0.42857143    0.57142857    0.57142857
    0.42857143    0.57142857    0.71428571
    0.42857143    0.57142857    0.85714286
    0.42857143    0.71428571    0.00000000
    0.42857143    0.71428571    0.14285714
    0.42857143    0.71428571    0.28571429
    0.42857143    0.71428571    0.42857143
    0.42857143    0.71428571    0.57142857
    0.42857143    0.71428571    0.71428571
    0.42857143    0.71428571    0.85714286
    0.42857143    0.85714286    0.00000000
    0.42857143    0.85714286    0.14285714
    0.42857143    0.85714286    0.28571429
    0.42857143    0.85714286    0.42857143
    0.42857143    0.85714286    0.57142857
    0.42857143    0.85714286    0.71428571
    0.42857143    0.85714286    0.85714286
    0.57142857    0.00000000    0.00000000
    0.57142857    0.00000000    0.14285714
    0.57142857    0.00000000    0.28571429
    0.57142857    0.00000000    0.42857143
    0.57142857    0.00000000    0.57142857
    0.57142857    0.00000000    0.71428571
    0.57142857    0.00000000    0.85714286
    0.57142857    0.14285714    0.00000000
    0.57142857    0.14285714    0.14285714
    0.57142857    0.14285714    0.28571429
    0.57142857    0.14285714    0.42857143
    0.57142857    0.14285714    0.57142857
    0.57142857    0.14285714    0.71428571
    0.57142857    0.14285714    0.85714286
    0.57142857    0.28571429    0.00000000
    0.57142857    0.28571429    0.14285714
    0.57142857    0.28571429    0.28571429
    0.57142857    0.28571429    0.42857143
    0.57142857    0.28571429    0.57142857
    0.57142857    0.28571429    0.71428571
    0.57142857    0.28571429    0.85714286
    0.57142857    0.42857143    0.00000000
    0.57142857    0.42857143    0.14285714
    0.57142857    0.42857143    0.28571429
    0.57142857    0.42857143    0.42857143
    0.57142857    0.42857143    0.57142857
    0.57142857    0.42857143    0.71428571
    0.57142857    0.42857143    0.85714286
    0.57142857    0.57142857    0.00000000
    0.57142857    0.57142857    0.14285714
    0.57142857    0.57142857    0.28571429
    0.57142857    0.57142857    0.42857143
    0.57142857    0.57142857    0.57142857
    0.57142857    0.57142857    0.71428571
    0.57142857    0.57142857    0.85714286
    0.57142857    0.71428571    0.00000000
    0.57142857    0.71428571    0.14285714
    0.57142857    0.71428571    0.28571429
    0.57142857    0.71428571    0.42857143
    0.57142857    0.71428571    0.57142857
    0.57142857    0.71428571    0.71428571
    0.57142857    0.71428571    0.85714286
    0.57142857    0.85714286    0.00000000
    0.57142857    0.85714286    0.14285714
    0.57142857    0.85714286    0.28571429
    0.57142857    0.85714286    0.42857143
    0.57142857    0.85714286    0.57142857
    0.57142857    0.85714286    0.71428571
    0.57142857    0.85714286    0.85714286
    0.71428571    0.00000000    0.00000000
    0.71428571    0.00000000    0.14285714
    0.71428571    0.00000000    0.28571429
    0.71428571    0.00000000    0.42857143
    0.71428571    0.00000000    0.57142857
    0.71428571    0.00000000    0.71428571
    0.71428571    0.00000000    0.85714286
    0.71428571    0.14285714    0.00000000
    0.71428571    0.14285714    0.14285714
    0.71428571    0.14285714    0.28571429
    0.71428571    0.14285714    0.42857143
    0.71428571    0.14285714    0.57142857
    0.71428571    0.14285714    0.71428571
    0.71428571    0.14285714    0.85714286
    0.71428571    0.28571429    0.00000000
    0.71428571    0.28571429    0.14285714
    0.71428571    0.28571429    0.28571429
    0.71428571    0.28571429    0.42857143
    0.71428571    0.28571429    0.57142857
    0.71428571    0.28571429    0.71428571
    0.71428571    0.28571429    0.85714286
    0.71428571    0.42857143    0.00000000
    0.71428571    0.42857143    0.14285714
    0.71428571    0.42857143    0.28571429
    0.71428571    0.42857143    0.42857143
    0.71428571    0.42857143    0.57142857
    0.71428571    0.42857143    0.71428571
    0.71428571    0.42857143    0.85714286
    0.71428571    0.57142857    0.00000000
    0.71428571    0.57142857    0.14285714
    0.71428571    0.57142857    0.28571429
    0.71428571    0.57142857    0.42857143
    0.71428571    0.57142857    0.57142857
    0.71428571    0.57142857    0.71428571
    0.71428571    0.57142857    0.85714286
    0.71428571    0.71428571    0.00000000
    0.71428571    0.71428571    0.14285714
    0.71428571    0.71428571    0.28571429
    0.71428571    0.71428571    0.42857143
    0.71428571    0.71428571    0.57142857
    0.71428571    0.71428571    0.71428571
    0.71428571    0.71428571    0.85714286
    0.71428571    0.85714286    0.00000000
    0.71428571    0.85714286    0.14285714
    0.71428571    0.85714286    0.28571429
    0.71428571    0.85714286    0.42857143
    0.71428571    0.85714286    0.57142857
    0.71428571    0.85714286    0.71428571
    0.71428571    0.85714286    0.85714286
    0.85714286    0.00000000    0.00000000
    0.85714286    0.00000000    0.14285714
    0.85714286    0.00000000    0.28571429
    0.85714286    0.00000000    0.42857143
    0.85714286    0.00000000    0.57142857
    0.85714286    0.00000000    0.71428571
    0.85714286    0.00000000    0.85714286
    0.85714286    0.14285714    0.00000000
    0.85714286    0.14285714    0.14285714
    0.85714286    0.14285714    0.28571429
    0.85714286    0.14285714    0.42857143
    0.85714286    0.14285714    0.57142857
    0.85714286    0.14285714    0.71428571
    0.85714286    0.14285714    0.85714286
    0.85714286    0.28571429    0.00000000
    0.85714286    0.28571429    0.14285714
    0.85714286    0.28571429    0.28571429
    0.85714286    0.28571429    0.42857143
    0.85714286    0.28571429    0.57142857
    0.85714286    0.28571429    0.71428571
    0.85714286    0.28571429    0.85714286
    0.85714286    0.42857143    0.00000000
    0.85714286    0.42857143    0.14285714
    0.85714286    0.42857143    0.28571429
    0.85714286    0.42857143    0.42857143
    0.85714286    0.42857143    0.57142857
    0.85714286    0.42857143    0.71428571
    0.85714286    0.42857143    0.85714286
    0.85714286    0.57142857    0.00000000
    0.85714286    0.57142857    0.14285714
    0.85714286    0.57142857    0.28571429
    0.85714286    0.57142857    0.42857143
    0.85714286    0.57142857    0.57142857
    0.85714286    0.57142857    0.71428571
    0.85714286    0.57142857    0.85714286
    0.85714286    0.71428571    0.00000000
    0.85714286    0.71428571    0.14285714
    0.85714286    0.71428571    0.28571429
    0.85714286    0.71428571    0.42857143
    0.85714286    0.71428571    0.57142857
    0.85714286    0.71428571    0.71428571
    0.85714286    0.71428571    0.85714286
    0.85714286    0.85714286    0.00000000
    0.85714286    0.85714286    0.14285714
    0.85714286    0.85714286    0.28571429
    0.85714286    0.85714286    0.42857143
    0.85714286    0.85714286    0.57142857
    0.85714286    0.85714286    0.71428571
    0.85714286    0.85714286    0.85714286
end kpoints

begin spinor_projections
    88
   0.83880    0.67760    0.25000     0  1  1
    0.0000000  0.0000000  1.0000000   1.0000000  0.0000000  0.0000000    1.00
    1   0.0000000  0.0000000  1.0000000
   0.83880    0.67760    0.25000     0  1  1
    0.0000000  0.0000000  1.0000000   1.0000000  0.0000000  0.0000000    1.00
   -1   0.0000000  0.0000000  1.0000000
   0.83880    0.67760    0.25000     2  1  1
    0.0000000  0.0000000  1.0000000   1.0000000  0.0000000  0.0000000    1.00
    1   0.0000000  0.0000000  1.0000000
   0.83880    0.67760    0.25000     2  1  1
    0.0000000  0.0000000  1.0000000   1.0000000  0.0000000  0.0000000    1.00
   -1   0.0000000  0.0000000  1.0000000
   0.83880    0.67760    0.25000     2  2  1
    0.0000000  0.0000000  1.0000000   1.0000000  0.0000000  0.0000000    1.00
    1   0.0000000  0.0000000  1.0000000
   0.83880    0.67760    0.25000     2  2  1
    0.0000000  0.0000000  1.0000000   1.0000000  0.0000000  0.0000000    1.00
   -1   0.0000000  0.0000000  1.0000000
   0.83880    0.67760    0.25000     2  3  1
    0.0000000  0.0000000  1.0000000   1.0000000  0.0000000  0.0000000    1.00
    1   0.0000000  0.0000000  1.0000000
   0.83880    0.67760    0.25000     2  3  1
    0.0000000  0.0000000  1.0000000   1.0000000  0.0000000  0.0000000    1.00
   -1   0.0000000  0.0000000  1.0000000
   0.83880    0.67760    0.25000     2  4  1
    0.0000000  0.0000000  1.0000000   1.0000000  0.0000000  0.0000000    1.00
    1   0.0000000  0.0000000  1.0000000
   0.83880    0.67760    0.25000     2  4  1
    0.0000000  0.0000000  1.0000000   1.0000000  0.0000000  0.0000000    1.00
   -1   0.0000000  0.0000000  1.0000000
   0.83880    0.67760    0.25000     2  5  1
    0.0000000  0.0000000  1.0000000   1.0000000  0.0000000  0.0000000    1.00
    1   0.0000000  0.0000000  1.0000000
   0.83880    0.67760    0.25000     2  5  1
    0.0000000  0.0000000  1.0000000   1.0000000  0.0000000  0.0000000    1.00
   -1   0.0000000  0.0000000  1.0000000
   0.32240    0.16120    0.25000     0  1  1
    0.0000000  0.0000000  1.0000000   1.0000000  0.0000000  0.0000000    1.00
    1   0.0000000  0.0000000  1.0000000
   0.32240    0.16120    0.25000     0  1  1
    0.0000000  0.0000000  1.0000000   1.0000000  0.0000000  0.0000000    1.00
   -1   0.0000000  0.0000000  1.0000000
   0.32240    0.16120    0.25000     2  1  1
    0.0000000  0.0000000  1.0000000   1.0000000  0.0000000  0.0000000    1.00
    1   0.0000000  0.0000000  1.0000000
   0.32240    0.16120    0.25000     2  1  1
    0.0000000  0.0000000  1.0000000   1.0000000  0.0000000  0.0000000    1.00
   -1   0.0000000  0.0000000  1.0000000
   0.32240    0.16120    0.25000     2  2  1
    0.0000000  0.0000000  1.0000000   1.0000000  0.0000000  0.0000000    1.00
    1   0.0000000  0.0000000  1.0000000
   0.32240    0.16120    0.25000     2  2  1
    0.0000000  0.0000000  1.0000000   1.0000000  0.0000000  0.0000000    1.00
   -1   0.0000000  0.0000000  1.0000000
   0.32240    0.16120    0.25000     2  3  1
    0.0000000  0.0000000  1.0000000   1.0000000  0.0000000  0.0000000    1.00
    1   0.0000000  0.0000000  1.0000000
   0.32240    0.16120    0.25000     2  3  1
    0.0000000  0.0000000  1.0000000   1.0000000  0.0000000  0.0000000    1.00
   -1   0.0000000  0.0000000  1.0000000
   0.32240    0.16120    0.25000     2  4  1
    0.0000000  0.0000000  1.0000000   1.0000000  0.0000000  0.0000000    1.00
    1   0.0000000  0.0000000  1.0000000
   0.32240    0.16120    0.25000     2  4  1
    0.0000000  0.0000000  1.0000000   1.0000000  0.0000000  0.0000000    1.00
   -1   0.0000000  0.0000000  1.0000000
   0.32240    0.16120    0.25000     2  5  1
    0.0000000  0.0000000  1.0000000   1.0000000  0.0000000  0.0000000    1.00
    1   0.0000000  0.0000000  1.0000000
   0.32240    0.16120    0.25000     2  5  1
    0.0000000  0.0000000  1.0000000   1.0000000  0.0000000  0.0000000    1.00
   -1   0.0000000  0.0000000  1.0000000
   0.83880    0.16120    0.25000     0  1  1
    0.0000000  0.0000000  1.0000000   1.0000000  0.0000000  0.0000000    1.00
    1   0.0000000  0.0000000  1.0000000
   0.83880    0.16120    0.25000     0  1  1
    0.0000000  0.0000000  1.0000000   1.0000000  0.0000000  0.0000000    1.00
   -1   0.0000000  0.0000000  1.0000000
   0.83880    0.16120    0.25000     2  1  1
    0.0000000  0.0000000  1.0000000   1.0000000  0.0000000  0.0000000    1.00
    1   0.0000000  0.0000000  1.0000000
   0.83880    0.16120    0.25000     2  1  1
    0.0000000  0.0000000  1.0000000   1.0000000  0.0000000  0.0000000    1.00
   -1   0.0000000  0.0000000  1.0000000
   0.83880    0.16120    0.25000     2  2  1
    0.0000000  0.0000000  1.0000000   1.0000000  0.0000000  0.0000000    1.00
    1   0.0000000  0.0000000  1.0000000
   0.83880    0.16120    0.25000     2  2  1
    0.0000000  0.0000000  1.0000000   1.0000000  0.0000000  0.0000000    1.00
   -1   0.0000000  0.0000000  1.0000000
   0.83880    0.16120    0.25000     2  3  1
    0.0000000  0.0000000  1.0000000   1.0000000  0.0000000  0.0000000    1.00
    1   0.0000000  0.0000000  1.0000000
   0.83880    0.16120    0.25000     2  3  1
    0.0000000  0.0000000  1.0000000   1.0000000  0.0000000  0.0000000    1.00
   -1   0.0000000  0.0000000  1.0000000
   0.83880    0.16120    0.25000     2  4  1
    0.0000000  0.0000000  1.0000000   1.0000000  0.0000000  0.0000000    1.00
    1   0.0000000  0.0000000  1.0000000
   0.83880    0.16120    0.25000     2  4  1
    0.0000000  0.0000000  1.0000000   1.0000000  0.0000000  0.0000000    1.00
   -1   0.0000000  0.0000000  1.0000000
   0.83880    0.16120    0.25000     2  5  1
    0.0000000  0.0000000  1.0000000   1.0000000  0.0000000  0.0000000    1.00
    1   0.0000000  0.0000000  1.0000000
   0.83880    0.16120    0.25000     2  5  1
    0.0000000  0.0000000  1.0000000   1.0000000  0.0000000  0.0000000    1.00
   -1   0.0000000  0.0000000  1.0000000
   0.16120    0.32240    0.75000     0  1  1
    0.0000000  0.0000000  1.0000000   1.0000000  0.0000000  0.0000000    1.00
    1   0.0000000  0.0000000  1.0000000
   0.16120    0.32240    0.75000     0  1  1
    0.0000000  0.0000000  1.0000000   1.0000000  0.0000000  0.0000000    1.00
   -1   0.0000000  0.0000000  1.0000000
   0.16120    0.32240    0.75000     2  1  1
    0.0000000  0.0000000  1.0000000   1.0000000  0.0000000  0.0000000    1.00
    1   0.0000000  0.0000000  1.0000000
   0.16120    0.32240    0.75000     2  1  1
    0.0000000  0.0000000  1.0000000   1.0000000  0.0000000  0.0000000    1.00
   -1   0.0000000  0.0000000  1.0000000
   0.16120    0.32240    0.75000     2  2  1
    0.0000000  0.0000000  1.0000000   1.0000000  0.0000000  0.0000000    1.00
    1   0.0000000  0.0000000  1.0000000
   0.16120    0.32240    0.75000     2  2  1
    0.0000000  0.0000000  1.0000000   1.0000000  0.0000000  0.0000000    1.00
   -1   0.0000000  0.0000000  1.0000000
   0.16120    0.32240    0.75000     2  3  1
    0.0000000  0.0000000  1.0000000   1.0000000  0.0000000  0.0000000    1.00
    1   0.0000000  0.0000000  1.0000000
   0.16120    0.32240    0.75000     2  3  1
    0.0000000  0.0000000  1.0000000   1.0000000  0.0000000  0.0000000    1.00
   -1   0.0000000  0.0000000  1.0000000
   0.16120    0.32240    0.75000     2  4  1
    0.0000000  0.0000000  1.0000000   1.0000000  0.0000000  0.0000000    1.00
    1   0.0000000  0.0000000  1.0000000
   0.16120    0.32240    0.75000     2  4  1
    0.0000000  0.0000000  1.0000000   1.0000000  0.0000000  0.0000000    1.00
   -1   0.0000000  0.0000000  1.0000000
   0.16120    0.32240    0.75000     2  5  1
    0.0000000  0.0000000  1.0000000   1.0000000  0.0000000  0.0000000    1.00
    1   0.0000000  0.0000000  1.0000000
   0.16120    0.32240    0.75000     2  5  1
    0.0000000  0.0000000  1.0000000   1.0000000  0.0000000  0.0000000    1.00
   -1   0.0000000  0.0000000  1.0000000
   0.67760    0.83880    0.75000     0  1  1
    0.0000000  0.0000000  1.0000000   1.0000000  0.0000000  0.0000000    1.00
    1   0.0000000  0.0000000  1.0000000
   0.67760    0.83880    0.75000     0  1  1
    0.0000000  0.0000000  1.0000000   1.0000000  0.0000000  0.0000000    1.00
   -1   0.0000000  0.0000000  1.0000000
   0.67760    0.83880    0.75000     2  1  1
    0.0000000  0.0000000  1.0000000   1.0000000  0.0000000  0.0000000    1.00
    1   0.0000000  0.0000000  1.0000000
   0.67760    0.83880    0.75000     2  1  1
    0.0000000  0.0000000  1.0000000   1.0000000  0.0000000  0.0000000    1.00
   -1   0.0000000  0.0000000  1.0000000
   0.67760    0.83880    0.75000     2  2  1
    0.0000000  0.0000000  1.0000000   1.0000000  0.0000000  0.0000000    1.00
    1   0.0000000  0.0000000  1.0000000
   0.67760    0.83880    0.75000     2  2  1
    0.0000000  0.0000000  1.0000000   1.0000000  0.0000000  0.0000000    1.00
   -1   0.0000000  0.0000000  1.0000000
   0.67760    0.83880    0.75000     2  3  1
    0.0000000  0.0000000  1.0000000   1.0000000  0.0000000  0.0000000    1.00
    1   0.0000000  0.0000000  1.0000000
   0.67760    0.83880    0.75000     2  3  1
    0.0000000  0.0000000  1.0000000   1.0000000  0.0000000  0.0000000    1.00
   -1   0.0000000  0.0000000  1.0000000
   0.67760    0.83880    0.75000     2  4  1
    0.0000000  0.0000000  1.0000000   1.0000000  0.0000000  0.0000000    1.00
    1   0.0000000  0.0000000  1.0000000
   0.67760    0.83880    0.75000     2  4  1
    0.0000000  0.0000000  1.0000000   1.0000000  0.0000000  0.0000000    1.00
   -1   0.0000000  0.0000000  1.0000000
   0.67760    0.83880    0.75000     2  5  1
    0.0000000  0.0000000  1.0000000   1.0000000  0.0000000  0.0000000    1.00
    1   0.0000000  0.0000000  1.0000000
   0.67760    0.83880    0.75000     2  5  1
    0.0000000  0.0000000  1.0000000   1.0000000  0.0000000  0.0000000    1.00
   -1   0.0000000  0.0000000  1.0000000
   0.16120    0.83880    0.75000     0  1  1
    0.0000000  0.0000000  1.0000000   1.0000000  0.0000000  0.0000000    1.00
    1   0.0000000  0.0000000  1.0000000
   0.16120    0.83880    0.75000     0  1  1
    0.0000000  0.0000000  1.0000000   1.0000000  0.0000000  0.0000000    1.00
   -1   0.0000000  0.0000000  1.0000000
   0.16120    0.83880    0.75000     2  1  1
    0.0000000  0.0000000  1.0000000   1.0000000  0.0000000  0.0000000    1.00
    1   0.0000000  0.0000000  1.0000000
   0.16120    0.83880    0.75000     2  1  1
    0.0000000  0.0000000  1.0000000   1.0000000  0.0000000  0.0000000    1.00
   -1   0.0000000  0.0000000  1.0000000
   0.16120    0.83880    0.75000     2  2  1
    0.0000000  0.0000000  1.0000000   1.0000000  0.0000000  0.0000000    1.00
    1   0.0000000  0.0000000  1.0000000
   0.16120    0.83880    0.75000     2  2  1
    0.0000000  0.0000000  1.0000000   1.0000000  0.0000000  0.0000000    1.00
   -1   0.0000000  0.0000000  1.0000000
   0.16120    0.83880    0.75000     2  3  1
    0.0000000  0.0000000  1.0000000   1.0000000  0.0000000  0.0000000    1.00
    1   0.0000000  0.0000000  1.0000000
   0.16120    0.83880    0.75000     2  3  1
    0.0000000  0.0000000  1.0000000   1.0000000  0.0000000  0.0000000    1.00
   -1   0.0000000  0.0000000  1.0000000
   0.16120    0.83880    0.75000     2  4  1
    0.0000000  0.0000000  1.0000000   1.0000000  0.0000000  0.0000000    1.00
    1   0.0000000  0.0000000  1.0000000
   0.16120    0.83880    0.75000     2  4  1
    0.0000000  0.0000000  1.0000000   1.0000000  0.0000000  0.0000000    1.00
   -1   0.0000000  0.0000000  1.0000000
   0.16120    0.83880    0.75000     2  5  1
    0.0000000  0.0000000  1.0000000   1.0000000  0.0000000  0.0000000    1.00
    1   0.0000000  0.0000000  1.0000000
   0.16120    0.83880    0.75000     2  5  1
    0.0000000  0.0000000  1.0000000   1.0000000  0.0000000  0.0000000    1.00
   -1   0.0000000  0.0000000  1.0000000
   0.33333    0.66667    0.25000     0  1  1
    0.0000000  0.0000000  1.0000000   1.0000000  0.0000000  0.0000000    1.00
    1   0.0000000  0.0000000  1.0000000
   0.33333    0.66667    0.25000     0  1  1
    0.0000000  0.0000000  1.0000000   1.0000000  0.0000000  0.0000000    1.00
   -1   0.0000000  0.0000000  1.0000000
   0.33333    0.66667    0.25000     1  1  1
    0.0000000  0.0000000  1.0000000   1.0000000  0.0000000  0.0000000    1.00
    1   0.0000000  0.0000000  1.0000000
   0.33333    0.66667    0.25000     1  1  1
    0.0000000  0.0000000  1.0000000   1.0000000  0.0000000  0.0000000    1.00
   -1   0.0000000  0.0000000  1.0000000
   0.33333    0.66667    0.25000     1  2  1
    0.0000000  0.0000000  1.0000000   1.0000000  0.0000000  0.0000000    1.00
    1   0.0000000  0.0000000  1.0000000
   0.33333    0.66667    0.25000     1  2  1
    0.0000000  0.0000000  1.0000000   1.0000000  0.0000000  0.0000000    1.00
   -1   0.0000000  0.0000000  1.0000000
   0.33333    0.66667    0.25000     1  3  1
    0.0000000  0.0000000  1.0000000   1.0000000  0.0000000  0.0000000    1.00
    1   0.0000000  0.0000000  1.0000000
   0.33333    0.66667    0.25000     1  3  1
    0.0000000  0.0000000  1.0000000   1.0000000  0.0000000  0.0000000    1.00
   -1   0.0000000  0.0000000  1.0000000
   0.66667    0.33333    0.75000     0  1  1
    0.0000000  0.0000000  1.0000000   1.0000000  0.0000000  0.0000000    1.00
    1   0.0000000  0.0000000  1.0000000
   0.66667    0.33333    0.75000     0  1  1
    0.0000000  0.0000000  1.0000000   1.0000000  0.0000000  0.0000000    1.00
   -1   0.0000000  0.0000000  1.0000000
   0.66667    0.33333    0.75000     1  1  1
    0.0000000  0.0000000  1.0000000   1.0000000  0.0000000  0.0000000    1.00
    1   0.0000000  0.0000000  1.0000000
   0.66667    0.33333    0.75000     1  1  1
    0.0000000  0.0000000  1.0000000   1.0000000  0.0000000  0.0000000    1.00
   -1   0.0000000  0.0000000  1.0000000
   0.66667    0.33333    0.75000     1  2  1
    0.0000000  0.0000000  1.0000000   1.0000000  0.0000000  0.0000000    1.00
    1   0.0000000  0.0000000  1.0000000
   0.66667    0.33333    0.75000     1  2  1
    0.0000000  0.0000000  1.0000000   1.0000000  0.0000000  0.0000000    1.00
   -1   0.0000000  0.0000000  1.0000000
   0.66667    0.33333    0.75000     1  3  1
    0.0000000  0.0000000  1.0000000   1.0000000  0.0000000  0.0000000    1.00
    1   0.0000000  0.0000000  1.0000000
   0.66667    0.33333    0.75000     1  3  1
    0.0000000  0.0000000  1.0000000   1.0000000  0.0000000  0.0000000    1.00
   -1   0.0000000  0.0000000  1.0000000
end spinor_projections

begin nnkpts
   8
     1     8      0   0   0
     1    50      0   0   0
     1    43      0  -1   0
     1    92      0  -1   0
     1   295     -1   0   0
     1   302     -1   0   0
     1     2      0   0   0
     1     7      0   0  -1
     2     9      0   0   0
     2    51      0   0   0
     2    44      0  -1   0
     2    93      0  -1   0
     2   296     -1   0   0
     2   303     -1   0   0
     2     1      0   0   0
     2     3      0   0   0
     3    10      0   0   0
     3    52      0   0   0
     3    45      0  -1   0
     3    94      0  -1   0
     3   297     -1   0   0
     3   304     -1   0   0
     3     2      0   0   0
     3     4      0   0   0
     4    11      0   0   0
     4    53      0   0   0
     4    46      0  -1   0
     4    95      0  -1   0
     4   298     -1   0   0
     4   305     -1   0   0
     4     3      0   0   0
     4     5      0   0   0
     5    12      0   0   0
     5    54      0   0   0
     5    47      0  -1   0
     5    96      0  -1   0
     5   299     -1   0   0
     5   306     -1   0   0
     5     4      0   0   0
     5     6      0   0   0
     6    13      0   0   0
     6    55      0   0   0
     6    48      0  -1   0
     6    97      0  -1   0
     6   300     -1   0   0
     6   307     -1   0   0
     6     5      0   0   0
     6     7      0   0   0
     7    14      0   0   0
     7    56      0   0   0
     7    49      0  -1   0
     7    98      0  -1   0
     7   301     -1   0   0
     7   308     -1   0   0
     7     6      0   0   0
     7     1      0   0   1
     8     1      0   0   0
     8    15      0   0   0
     8    50      0   0   0
     8    57      0   0   0
     8   302     -1   0   0
     8   309     -1   0   0
     8     9      0   0   0
     8    14      0   0  -1
     9     2      0   0   0
     9    16      0   0   0
     9    51      0   0   0
     9    58      0   0   0
     9   303     -1   0   0
     9   310     -1   0   0
     9     8      0   0   0
     9    10      0   0   0
    10     3      0   0   0
    10    17      0   0   0
    10    52      0   0   0
    10    59      0   0   0
    10   304     -1   0   0
    10   311     -1   0   0
    10     9      0   0   0
    10    11      0   0   0
    11     4      0   0   0
    11    18      0   0   0
    11    53      0   0   0
    11    60      0   0   0
    11   305     -1   0   0
    11   312     -1   0   0
    11    10      0   0   0
    11    12      0   0   0
    12     5      0   0   0
    12    19      0   0   0
    12    54      0   0   0
    12    61      0   0   0
    12   306     -1   0   0
    12   313     -1   0   0
    12    11      0   0   0
    12    13      0   0   0
    13     6      0   0   0
    13    20      0   0   0
    13    55      0   0   0
    13    62      0   0   0
    13   307     -1   0   0
    13   314     -1   0   0
    13    12      0   0   0
    13    14      0   0   0
    14     7      0   0   0
    14    21      0   0   0
    14    56      0   0   0
    14    63      0   0   0
    14   308     -1   0   0
    14   315     -1   0   0
    14    13      0   0   0
    14     8      0   0   1
    15     8      0   0   0
    15    22      0   0   0
    15    57      0   0   0
    15    64      0   0   0
    15   309     -1   0   0
    15   316     -1   0   0
    15    16      0   0   0
    15    21      0   0  -1
    16     9      0   0   0
    16    23      0   0   0
    16    58      0   0   0
    16    65      0   0   0
    16   310     -1   0   0
    16   317     -1   0   0
    16    15      0   0   0
    16    17      0   0   0
    17    10      0   0   0
    17    24      0   0   0
    17    59      0   0   0
    17    66      0   0   0
    17   311     -1   0   0
    17   318     -1   0   0
    17    16      0   0   0
    17    18      0   0   0
    18    11      0   0   0
    18    25      0   0   0
    18    60      0   0   0
    18    67      0   0   0
    18   312     -1   0   0
    18   319     -1   0   0
    18    17      0   0   0
    18    19      0   0   0
    19    12      0   0   0
    19    26      0   0   0
    19    61      0   0   0
    19    68      0   0   0
    19   313     -1   0   0
    19   320     -1   0   0
    19    18      0   0   0
    19    20      0   0   0
    20    13      0   0   0
    20    27      0   0   0
    20    62      0   0   0
    20    69      0   0   0
    20   314     -1   0   0
    20   321     -1   0   0
    20    19      0   0   0
    20    21      0   0   0
    21    14      0   0   0
    21    28      0   0   0
    21    63      0   0   0
    21    70      0   0   0
    21   315     -1   0   0
    21   322     -1   0   0
    21    20      0   0   0
    21    15      0   0   1
    22    15      0   0   0
    22    29      0   0   0
    22    64      0   0   0
    22    71      0   0   0
    22   316     -1   0   0
    22   323     -1   0   0
    22    23      0   0   0
    22    28      0   0  -1
    23    16      0   0   0
    23    30      0   0   0
    23    65      0   0   0
    23    72      0   0   0
    23   317     -1   0   0
    23   324     -1   0   0
    23    22      0   0   0
    23    24      0   0   0
    24    17      0   0   0
    24    31      0   0   0
    24    66      0   0   0
    24    73      0   0   0
    24   318     -1   0   0
    24   325     -1   0   0
    24    23      0   0   0
    24    25      0   0   0
    25    18      0   0   0
    25    32      0   0   0
    25    67      0   0   0
    25    74      0   0   0
    25   319     -1   0   0
    25   326     -1   0   0
    25    24      0   0   0
    25    26      0   0   0
    26    19      0   0   0
    26    33      0   0   0
    26    68      0   0   0
    26    75      0   0   0
    26   320     -1   0   0
    26   327     -1   0   0
    26    25      0   0   0
    26    27      0   0   0
    27    20      0   0   0
    27    34      0   0   0
    27    69      0   0   0
    27    76      0   0   0
    27   321     -1   0   0
    27   328     -1   0   0
    27    26      0   0   0
    27    28      0   0   0
    28    21      0   0   0
    28    35      0   0   0
    28    70      0   0   0
    28    77      0   0   0
    28   322     -1   0   0
    28   329     -1   0   0
    28    27      0   0   0
    28    22      0   0   1
    29    22      0   0   0
    29    36      0   0   0
    29    71      0   0   0
    29    78      0   0   0
    29   323     -1   0   0
    29   330     -1   0   0
    29    30      0   0   0
    29    35      0   0  -1
    30    23      0   0   0
    30    37      0   0   0
    30    72      0   0   0
    30    79      0   0   0
    30   324     -1   0   0
    30   331     -1   0   0
    30    29      0   0   0
    30    31      0   0   0
    31    24      0   0   0
    31    38      0   0   0
    31    73      0   0   0
    31    80      0   0   0
    31   325     -1   0   0
    31   332     -1   0   0
    31    30      0   0   0
    31    32      0   0   0
    32    25      0   0   0
    32    39      0   0   0
    32    74      0   0   0
    32    81      0   0   0
    32   326     -1   0   0
    32   333     -1   0   0
    32    31      0   0   0
    32    33      0   0   0
    33    26      0   0   0
    33    40      0   0   0
    33    75      0   0   0
    33    82      0   0   0
    33   327     -1   0   0
    33   334     -1   0   0
    33    32      0   0   0
    33    34      0   0   0
    34    27      0   0   0
    34    41      0   0   0
    34    76      0   0   0
    34    83      0   0   0
    34   328     -1   0   0
    34   335     -1   0   0
    34    33      0   0   0
    34    35      0   0   0
    35    28      0   0   0
    35    42      0   0   0
    35    77      0   0   0
    35    84      0   0   0
    35   329     -1   0   0
    35   336     -1   0   0
    35    34      0   0   0
    35    29      0   0   1
    36    29      0   0   0
    36    43      0   0   0
    36    78      0   0   0
    36    85      0   0   0
    36   330     -1   0   0
    36   337     -1   0   0
    36    37      0   0   0
    36    42      0   0  -1
    37    30      0   0   0
    37    44      0   0   0
    37    79      0   0   0
    37    86      0   0   0
    37   331     -1   0   0
    37   338     -1   0   0
    37    36      0   0   0
    37    38      0   0   0
    38    31      0   0   0
    38    45      0   0   0
    38    80      0   0   0
    38    87      0   0   0
    38   332     -1   0   0
    38   339     -1   0   0
    38    37      0   0   0
    38    39      0   0   0
    39    32      0   0   0
    39    46      0   0   0
    39    81      0   0   0
    39    88      0   0   0
    39   333     -1   0   0
    39   340     -1   0   0
    39    38      0   0   0
    39    40      0   0   0
    40    33      0   0   0
    40    47      0   0   0
    40    82      0   0   0
    40    89      0   0   0
    40   334     -1   0   0
    40   341     -1   0   0
    40    39      0   0   0
    40    41      0   0   0
    41    34      0   0   0
    41    48      0   0   0
    41    83      0   0   0
    41    90      0   0   0
    41   335     -1   0   0
    41   342     -1   0   0
    41    40      0   0   0
    41    42      0   0   0
    42    35      0   0   0
    42    49      0   0   0
    42    84      0   0   0
    42    91      0   0   0
    42   336     -1   0   0
    42   343     -1   0   0
    42    41      0   0   0
    42    36      0   0   1
    43    36      0   0   0
    43    85      0   0   0
    43    92      0   0   0
    43     1      0   1   0
    43   295     -1   1   0
    43   337     -1   0   0
    43    44      0   0   0
    43    49      0   0  -1
    44    37      0   0   0
    44    86      0   0   0
    44    93      0   0   0
    44     2      0   1   0
    44   296     -1   1   0
    44   338     -1   0   0
    44    43      0   0   0
    44    45      0   0   0
    45    38      0   0   0
    45    87      0   0   0
    45    94      0   0   0
    45     3      0   1   0
    45   297     -1   1   0
    45   339     -1   0   0
    45    44      0   0   0
    45    46      0   0   0
    46    39      0   0   0
    46    88      0   0   0
    46    95      0   0   0
    46     4      0   1   0
    46   298     -1   1   0
    46   340     -1   0   0
    46    45      0   0   0
    46    47      0   0   0
    47    40      0   0   0
    47    89      0   0   0
    47    96      0   0   0
    47     5      0   1   0
    47   299     -1   1   0
    47   341     -1   0   0
    47    46      0   0   0
    47    48      0   0   0
    48    41      0   0   0
    48    90      0   0   0
    48    97      0   0   0
    48     6      0   1   0
    48   300     -1   1   0
    48   342     -1   0   0
    48    47      0   0   0
    48    49      0   0   0
    49    42      0   0   0
    49    91      0   0   0
    49    98      0   0   0
    49     7      0   1   0
    49   301     -1   1   0
    49   343     -1   0   0
    49    48      0   0   0
    49    43      0   0   1
    50     1      0   0   0
    50     8      0   0   0
    50    57      0   0   0
    50    99      0   0   0
    50    92      0  -1   0
    50   141      0  -1   0
    50    51      0   0   0
    50    56      0   0  -1
    51     2      0   0   0
    51     9      0   0   0
    51    58      0   0   0
    51   100      0   0   0
    51    93      0  -1   0
    51   142      0  -1   0
    51    50      0   0   0
    51    52      0   0   0
    52     3      0   0   0
    52    10      0   0   0
    52    59      0   0   0
    52   101      0   0   0
    52    94      0  -1   0
    52   143      0  -1   0
    52    51      0   0   0
    52    53      0   0   0
    53     4      0   0   0
    53    11      0   0   0
    53    60      0   0   0
    53   102      0   0   0
    53    95      0  -1   0
    53   144      0  -1   0
    53    52      0   0   0
    53    54      0   0   0
    54     5      0   0   0
    54    12      0   0   0
    54    61      0   0   0
    54   103      0   0   0
    54    96      0  -1   0
    54   145      0  -1   0
    54    53      0   0   0
    54    55      0   0   0
    55     6      0   0   0
    55    13      0   0   0
    55    62      0   0   0
    55   104      0   0   0
    55    97      0  -1   0
    55   146      0  -1   0
    55    54      0   0   0
    55    56      0   0   0
    56     7      0   0   0
    56    14      0   0   0
    56    63      0   0   0
    56   105      0   0   0
    56    98      0  -1   0
    56   147      0  -1   0
    56    55      0   0   0
    56    50      0   0   1
    57     8      0   0   0
    57    15      0   0   0
    57    50      0   0   0
    57    64      0   0   0
    57    99      0   0   0
    57   106      0   0   0
    57    58      0   0   0
    57    63      0   0  -1
    58     9      0   0   0
    58    16      0   0   0
    58    51      0   0   0
    58    65      0   0   0
    58   100      0   0   0
    58   107      0   0   0
    58    57      0   0   0
    58    59      0   0   0
    59    10      0   0   0
    59    17      0   0   0
    59    52      0   0   0
    59    66      0   0   0
    59   101      0   0   0
    59   108      0   0   0
    59    58      0   0   0
    59    60      0   0   0
    60    11      0   0   0
    60    18      0   0   0
    60    53      0   0   0
    60    67      0   0   0
    60   102      0   0   0
    60   109      0   0   0
    60    59      0   0   0
    60    61      0   0   0
    61    12      0   0   0
    61    19      0   0   0
    61    54      0   0   0
    61    68      0   0   0
    61   103      0   0   0
    61   110      0   0   0
    61    60      0   0   0
    61    62      0   0   0
    62    13      0   0   0
    62    20      0   0   0
    62    55      0   0   0
    62    69      0   0   0
    62   104      0   0   0
    62   111      0   0   0
    62    61      0   0   0
    62    63      0   0   0
    63    14      0   0   0
    63    21      0   0   0
    63    56      0   0   0
    63    70      0   0   0
    63   105      0   0   0
    63   112      0   0   0
    63    62      0   0   0
    63    57      0   0   1
    64    15      0   0   0
    64    22      0   0   0
    64    57      0   0   0
    64    71      0   0   0
    64   106      0   0   0
    64   113      0   0   0
    64    65      0   0   0
    64    70      0   0  -1
    65    16      0   0   0
    65    23      0   0   0
    65    58      0   0   0
    65    72      0   0   0
    65   107      0   0   0
    65   114      0   0   0
    65    64      0   0   0
    65    66      0   0   0
    66    17      0   0   0
    66    24      0   0   0
    66    59      0   0   0
    66    73      0   0   0
    66   108      0   0   0
    66   115      0   0   0
    66    65      0   0   0
    66    67      0   0   0
    67    18      0   0   0
    67    25      0   0   0
    67    60      0   0   0
    67    74      0   0   0
    67   109      0   0   0
    67   116      0   0   0
    67    66      0   0   0
    67    68      0   0   0
    68    19      0   0   0
    68    26      0   0   0
    68    61      0   0   0
    68    75      0   0   0
    68   110      0   0   0
    68   117      0   0   0
    68    67      0   0   0
    68    69      0   0   0
    69    20      0   0   0
    69    27      0   0   0
    69    62      0   0   0
    69    76      0   0   0
    69   111      0   0   0
    69   118      0   0   0
    69    68      0   0   0
    69    70      0   0   0
    70    21      0   0   0
    70    28      0   0   0
    70    63      0   0   0
    70    77      0   0   0
    70   112      0   0   0
    70   119      0   0   0
    70    69      0   0   0
    70    64      0   0   1
    71    22      0   0   0
    71    29      0   0   0
    71    64      0   0   0
    71    78      0   0   0
    71   113      0   0   0
    71   120      0   0   0
    71    72      0   0   0
    71    77      0   0  -1
    72    23      0   0   0
    72    30      0   0   0
    72    65      0   0   0
    72    79      0   0   0
    72   114      0   0   0
    72   121      0   0   0
    72    71      0   0   0
    72    73      0   0   0
    73    24      0   0   0
    73    31      0   0   0
    73    66      0   0   0
    73    80      0   0   0
    73   115      0   0   0
    73   122      0   0   0
    73    72      0   0   0
    73    74      0   0   0
    74    25      0   0   0
    74    32      0   0   0
    74    67      0   0   0
    74    81      0   0   0
    74   116      0   0   0
    74   123      0   0   0
    74    73      0   0   0
    74    75      0   0   0
    75    26      0   0   0
    75    33      0   0   0
    75    68      0   0   0
    75    82      0   0   0
    75   117      0   0   0
    75   124      0   0   0
    75    74      0   0   0
    75    76      0   0   0
    76    27      0   0   0
    76    34      0   0   0
    76    69      0   0   0
    76    83      0   0   0
    76   118      0   0   0
    76   125      0   0   0
    76    75      0   0   0
    76    77      0   0   0
    77    28      0   0   0
    77    35      0   0   0
    77    70      0   0   0
    77    84      0   0   0
    77   119      0   0   0
    77   126      0   0   0
    77    76      0   0   0
    77    71      0   0   1
    78    29      0   0   0
    78    36      0   0   0
    78    71      0   0   0
    78    85      0   0   0
    78   120      0   0   0
    78   127      0   0   0
    78    79      0   0   0
    78    84      0   0  -1
    79    30      0   0   0
    79    37      0   0   0
    79    72      0   0   0
    79    86      0   0   0
    79   121      0   0   0
    79   128      0   0   0
    79    78      0   0   0
    79    80      0   0   0
    80    31      0   0   0
    80    38      0   0   0
    80    73      0   0   0
    80    87      0   0   0
    80   122      0   0   0
    80   129      0   0   0
    80    79      0   0   0
    80    81      0   0   0
    81    32      0   0   0
    81    39      0   0   0
    81    74      0   0   0
    81    88      0   0   0
    81   123      0   0   0
    81   130      0   0   0
    81    80      0   0   0
    81    82      0   0   0
    82    33      0   0   0
    82    40      0   0   0
    82    75      0   0   0
    82    89      0   0   0
    82   124      0   0   0
    82   131      0   0   0
    82    81      0   0   0
    82    83      0   0   0
    83    34      0   0   0
    83    41      0   0   0
    83    76      0   0   0
    83    90      0   0   0
    83   125      0   0   0
    83   132      0   0   0
    83    82      0   0   0
    83    84      0   0   0
    84    35      0   0   0
    84    42      0   0   0
    84    77      0   0   0
    84    91      0   0   0
    84   126      0   0   0
    84   133      0   0   0
    84    83      0   0   0
    84    78      0   0   1
    85    36      0   0   0
    85    43      0   0   0
    85    78      0   0   0
    85    92      0   0   0
    85   127      0   0   0
    85   134      0   0   0
    85    86      0   0   0
    85    91      0   0  -1
    86    37      0   0   0
    86    44      0   0   0
    86    79      0   0   0
    86    93      0   0   0
    86   128      0   0   0
    86   135      0   0   0
    86    85      0   0   0
    86    87      0   0   0
    87    38      0   0   0
    87    45      0   0   0
    87    80      0   0   0
    87    94      0   0   0
    87   129      0   0   0
    87   136      0   0   0
    87    86      0   0   0
    87    88      0   0   0
    88    39      0   0   0
    88    46      0   0   0
    88    81      0   0   0
    88    95      0   0   0
    88   130      0   0   0
    88   137      0   0   0
    88    87      0   0   0
    88    89      0   0   0
    89    40      0   0   0
    89    47      0   0   0
    89    82      0   0   0
    89    96      0   0   0
    89   131      0   0   0
    89   138      0   0   0
    89    88      0   0   0
    89    90      0   0   0
    90    41      0   0   0
    90    48      0   0   0
    90    83      0   0   0
    90    97      0   0   0
    90   132      0   0   0
    90   139      0   0   0
    90    89      0   0   0
    90    91      0   0   0
    91    42      0   0   0
    91    49      0   0   0
    91    84      0   0   0
    91    98      0   0   0
    91   133      0   0   0
    91   140      0   0   0
    91    90      0   0   0
    91    85      0   0   1
    92    43      0   0   0
    92    85      0   0   0
    92   134      0   0   0
    92   141      0   0   0
    92     1      0   1   0
    92    50      0   1   0
    92    93      0   0   0
    92    98      0   0  -1
    93    44      0   0   0
    93    86      0   0   0
    93   135      0   0   0
    93   142      0   0   0
    93     2      0   1   0
    93    51      0   1   0
    93    92      0   0   0
    93    94      0   0   0
    94    45      0   0   0
    94    87      0   0   0
    94   136      0   0   0
    94   143      0   0   0
    94     3      0   1   0
    94    52      0   1   0
    94    93      0   0   0
    94    95      0   0   0
    95    46      0   0   0
    95    88      0   0   0
    95   137      0   0   0
    95   144      0   0   0
    95     4      0   1   0
    95    53      0   1   0
    95    94      0   0   0
    95    96      0   0   0
    96    47      0   0   0
    96    89      0   0   0
    96   138      0   0   0
    96   145      0   0   0
    96     5      0   1   0
    96    54      0   1   0
    96    95      0   0   0
    96    97      0   0   0
    97    48      0   0   0
    97    90      0   0   0
    97   139      0   0   0
    97   146      0   0   0
    97     6      0   1   0
    97    55      0   1   0
    97    96      0   0   0
    97    98      0   0   0
    98    49      0   0   0
    98    91      0   0   0
    98   140      0   0   0
    98   147      0   0   0
    98     7      0   1   0
    98    56      0   1   0
    98    97      0   0   0
    98    92      0   0   1
    99    50      0   0   0
    99    57      0   0   0
    99   106      0   0   0
    99   148      0   0   0
    99   141      0  -1   0
    99   190      0  -1   0
    99   100      0   0   0
    99   105      0   0  -1
   100    51      0   0   0
   100    58      0   0   0
   100   107      0   0   0
   100   149      0   0   0
   100   142      0  -1   0
   100   191      0  -1   0
   100    99      0   0   0
   100   101      0   0   0
   101    52      0   0   0
   101    59      0   0   0
   101   108      0   0   0
   101   150      0   0   0
   101   143      0  -1   0
   101   192      0  -1   0
   101   100      0   0   0
   101   102      0   0   0
   102    53      0   0   0
   102    60      0   0   0
   102   109      0   0   0
   102   151      0   0   0
   102   144      0  -1   0
   102   193      0  -1   0
   102   101      0   0   0
   102   103      0   0   0
   103    54      0   0   0
   103    61      0   0   0
   103   110      0   0   0
   103   152      0   0   0
   103   145      0  -1   0
   103   194      0  -1   0
   103   102      0   0   0
   103   104      0   0   0
   104    55      0   0   0
   104    62      0   0   0
   104   111      0   0   0
   104   153      0   0   0
   104   146      0  -1   0
   104   195      0  -1   0
   104   103      0   0   0
   104   105      0   0   0
   105    56      0   0   0
   105    63      0   0   0
   105   112      0   0   0
   105   154      0   0   0
   105   147      0  -1   0
   105   196      0  -1   0
   105   104      0   0   0
   105    99      0   0   1
   106    57      0   0   0
   106    64      0   0   0
   106    99      0   0   0
   106   113      0   0   0
   106   148      0   0   0
   106   155      0   0   0
   106   107      0   0   0
   106   112      0   0  -1
   107    58      0   0   0
   107    65      0   0   0
   107   100      0   0   0
   107   114      0   0   0
   107   149      0   0   0
   107   156      0   0   0
   107   106      0   0   0
   107   108      0   0   0
   108    59      0   0   0
   108    66      0   0   0
   108   101      0   0   0
   108   115      0   0   0
   108   150      0   0   0
   108   157      0   0   0
   108   107      0   0   0
   108   109      0   0   0
   109    60      0   0   0
   109    67      0   0   0
   109   102      0   0   0
   109   116      0   0   0
   109   151      0   0   0
   109   158      0   0   0
   109   108      0   0   0
   109   110      0   0   0
   110    61      0   0   0
   110    68      0   0   0
   110   103      0   0   0
   110   117      0   0   0
   110   152      0   0   0
   110   159      0   0   0
   110   109      0   0   0
   110   111      0   0   0
   111    62      0   0   0
   111    69      0   0   0
   111   104      0   0   0
   111   118      0   0   0
   111   153      0   0   0
   111   160      0   0   0
   111   110      0   0   0
   111   112      0   0   0
   112    63      0   0   0
   112    70      0   0   0
   112   105      0   0   0
   112   119      0   0   0
   112   154      0   0   0
   112   161      0   0   0
   112   111      0   0   0
   112   106      0   0   1
   113    64      0   0   0
   113    71      0   0   0
   113   106      0   0   0
   113   120      0   0   0
   113   155      0   0   0
   113   162      0   0   0
   113   114      0   0   0
   113   119      0   0  -1
   114    65      0   0   0
   114    72      0   0   0
   114   107      0   0   0
   114   121      0   0   0
   114   156      0   0   0
   114   163      0   0   0
   114   113      0   0   0
   114   115      0   0   0
   115    66      0   0   0
   115    73      0   0   0
   115   108      0   0   0
   115   122      0   0   0
   115   157      0   0   0
   115   164      0   0   0
   115   114      0   0   0
   115   116      0   0   0
   116    67      0   0   0
   116    74      0   0   0
   116   109      0   0   0
   116   123      0   0   0
   116   158      0   0   0
   116   165      0   0   0
   116   115      0   0   0
   116   117      0   0   0
   117    68      0   0   0
   117    75      0   0   0
   117   110      0   0   0
   117   124      0   0   0
   117   159      0   0   0
   117   166      0   0   0
   117   116      0   0   0
   117   118      0   0   0
   118    69      0   0   0
   118    76      0   0   0
   118   111      0   0   0
   118   125      0   0   0
   118   160      0   0   0
   118   167      0   0   0
   118   117      0   0   0
   118   119      0   0   0
   119    70      0   0   0
   119    77      0   0   0
   119   112      0   0   0
   119   126      0   0   0
   119   161      0   0   0
   119   168      0   0   0
   119   118      0   0   0
   119   113      0   0   1
   120    71      0   0   0
   120    78      0   0   0
   120   113      0   0   0
   120   127      0   0   0
   120   162      0   0   0
   120   169      0   0   0
   120   121      0   0   0
   120   126      0   0  -1
   121    72      0   0   0
   121    79      0   0   0
   121   114      0   0   0
   121   128      0   0   0
   121   163      0   0   0
   121   170      0   0   0
   121   120      0   0   0
   121   122      0   0   0
   122    73      0   0   0
   122    80      0   0   0
   122   115      0   0   0
   122   129      0   0   0
   122   164      0   0   0
   122   171      0   0   0
   122   121      0   0   0
   122   123      0   0   0
   123    74      0   0   0
   123    81      0   0   0
   123   116      0   0   0
   123   130      0   0   0
   123   165      0   0   0
   123   172      0   0   0
   123   122      0   0   0
   123   124      0   0   0
   124    75      0   0   0
   124    82      0   0   0
   124   117      0   0   0
   124   131      0   0   0
   124   166      0   0   0
   124   173      0   0   0
   124   123      0   0   0
   124   125      0   0   0
   125    76      0   0   0
   125    83      0   0   0
   125   118      0   0   0
   125   132      0   0   0
   125   167      0   0   0
   125   174      0   0   0
   125   124      0   0   0
   125   126      0   0   0
   126    77      0   0   0
   126    84      0   0   0
   126   119      0   0   0
   126   133      0   0   0
   126   168      0   0   0
   126   175      0   0   0
   126   125      0   0   0
   126   120      0   0   1
   127    78      0   0   0
   127    85      0   0   0
   127   120      0   0   0
   127   134      0   0   0
   127   169      0   0   0
   127   176      0   0   0
   127   128      0   0   0
   127   133      0   0  -1
   128    79      0   0   0
   128    86      0   0   0
   128   121      0   0   0
   128   135      0   0   0
   128   170      0   0   0
   128   177      0   0   0
   128   127      0   0   0
   128   129      0   0   0
   129    80      0   0   0
   129    87      0   0   0
   129   122      0   0   0
   129   136      0   0   0
   129   171      0   0   0
   129   178      0   0   0
   129   128      0   0   0
   129   130      0   0   0
   130    81      0   0   0
   130    88      0   0   0
   130   123      0   0   0
   130   137      0   0   0
   130   172      0   0   0
   130   179      0   0   0
   130   129      0   0   0
   130   131      0   0   0
   131    82      0   0   0
   131    89      0   0   0
   131   124      0   0   0
   131   138      0   0   0
   131   173      0   0   0
   131   180      0   0   0
   131   130      0   0   0
   131   132      0   0   0
   132    83      0   0   0
   132    90      0   0   0
   132   125      0   0   0
   132   139      0   0   0
   132   174      0   0   0
   132   181      0   0   0
   132   131      0   0   0
   132   133      0   0   0
   133    84      0   0   0
   133    91      0   0   0
   133   126      0   0   0
   133   140      0   0   0
   133   175      0   0   0
   133   182      0   0   0
   133   132      0   0   0
   133   127      0   0   1
   134    85      0   0   0
   134    92      0   0   0
   134   127      0   0   0
   134   141      0   0   0
   134   176      0   0   0
   134   183      0   0   0
   134   135      0   0   0
   134   140      0   0  -1
   135    86      0   0   0
   135    93      0   0   0
   135   128      0   0   0
   135   142      0   0   0
   135   177      0   0   0
   135   184      0   0   0
   135   134      0   0   0
   135   136      0   0   0
   136    87      0   0   0
   136    94      0   0   0
   136   129      0   0   0
   136   143      0   0   0
   136   178      0   0   0
   136   185      0   0   0
   136   135      0   0   0
   136   137      0   0   0
   137    88      0   0   0
   137    95      0   0   0
   137   130      0   0   0
   137   144      0   0   0
   137   179      0   0   0
   137   186      0   0   0
   137   136      0   0   0
   137   138      0   0   0
   138    89      0   0   0
   138    96      0   0   0
   138   131      0   0   0
   138   145      0   0   0
   138   180      0   0   0
   138   187      0   0   0
   138   137      0   0   0
   138   139      0   0   0
   139    90      0   0   0
   139    97      0   0   0
   139   132      0   0   0
   139   146      0   0   0
   139   181      0   0   0
   139   188      0   0   0
   139   138      0   0   0
   139   140      0   0   0
   140    91      0   0   0
   140    98      0   0   0
   140   133      0   0   0
   140   147      0   0   0
   140   182      0   0   0
   140   189      0   0   0
   140   139      0   0   0
   140   134      0   0   1
   141    92      0   0   0
   141   134      0   0   0
   141   183      0   0   0
   141   190      0   0   0
   141    50      0   1   0
   141    99      0   1   0
   141   142      0   0   0
   141   147      0   0  -1
   142    93      0   0   0
   142   135      0   0   0
   142   184      0   0   0
   142   191      0   0   0
   142    51      0   1   0
   142   100      0   1   0
   142   141      0   0   0
   142   143      0   0   0
   143    94      0   0   0
   143   136      0   0   0
   143   185      0   0   0
   143   192      0   0   0
   143    52      0   1   0
   143   101      0   1   0
   143   142      0   0   0
   143   144      0   0   0
   144    95      0   0   0
   144   137      0   0   0
   144   186      0   0   0
   144   193      0   0   0
   144    53      0   1   0
   144   102      0   1   0
   144   143      0   0   0
   144   145      0   0   0
   145    96      0   0   0
   145   138      0   0   0
   145   187      0   0   0
   145   194      0   0   0
   145    54      0   1   0
   145   103      0   1   0
   145   144      0   0   0
   145   146      0   0   0
   146    97      0   0   0
   146   139      0   0   0
   146   188      0   0   0
   146   195      0   0   0
   146    55      0   1   0
   146   104      0   1   0
   146   145      0   0   0
   146   147      0   0   0
   147    98      0   0   0
   147   140      0   0   0
   147   189      0   0   0
   147   196      0   0   0
   147    56      0   1   0
   147   105      0   1   0
   147   146      0   0   0
   147   141      0   0   1
   148    99      0   0   0
   148   106      0   0   0
   148   155      0   0   0
   148   197      0   0   0
   148   190      0  -1   0
   148   239      0  -1   0
   148   149      0   0   0
   148   154      0   0  -1
   149   100      0   0   0
   149   107      0   0   0
   149   156      0   0   0
   149   198      0   0   0
   149   191      0  -1   0
   149   240      0  -1   0
   149   148      0   0   0
   149   150      0   0   0
   150   101      0   0   0
   150   108      0   0   0
   150   157      0   0   0
   150   199      0   0   0
   150   192      0  -1   0
   150   241      0  -1   0
   150   149      0   0   0
   150   151      0   0   0
   151   102      0   0   0
   151   109      0   0   0
   151   158      0   0   0
   151   200      0   0   0
   151   193      0  -1   0
   151   242      0  -1   0
   151   150      0   0   0
   151   152      0   0   0
   152   103      0   0   0
   152   110      0   0   0
   152   159      0   0   0
   152   201      0   0   0
   152   194      0  -1   0
   152   243      0  -1   0
   152   151      0   0   0
   152   153      0   0   0
   153   104      0   0   0
   153   111      0   0   0
   153   160      0   0   0
   153   202      0   0   0
   153   195      0  -1   0
   153   244      0  -1   0
   153   152      0   0   0
   153   154      0   0   0
   154   105      0   0   0
   154   112      0   0   0
   154   161      0   0   0
   154   203      0   0   0
   154   196      0  -1   0
   154   245      0  -1   0
   154   153      0   0   0
   154   148      0   0   1
   155   106      0   0   0
   155   113      0   0   0
   155   148      0   0   0
   155   162      0   0   0
   155   197      0   0   0
   155   204      0   0   0
   155   156      0   0   0
   155   161      0   0  -1
   156   107      0   0   0
   156   114      0   0   0
   156   149      0   0   0
   156   163      0   0   0
   156   198      0   0   0
   156   205      0   0   0
   156   155      0   0   0
   156   157      0   0   0
   157   108      0   0   0
   157   115      0   0   0
   157   150      0   0   0
   157   164      0   0   0
   157   199      0   0   0
   157   206      0   0   0
   157   156      0   0   0
   157   158      0   0   0
   158   109      0   0   0
   158   116      0   0   0
   158   151      0   0   0
   158   165      0   0   0
   158   200      0   0   0
   158   207      0   0   0
   158   157      0   0   0
   158   159      0   0   0
   159   110      0   0   0
   159   117      0   0   0
   159   152      0   0   0
   159   166      0   0   0
   159   201      0   0   0
   159   208      0   0   0
   159   158      0   0   0
   159   160      0   0   0
   160   111      0   0   0
   160   118      0   0   0
   160   153      0   0   0
   160   167      0   0   0
   160   202      0   0   0
   160   209      0   0   0
   160   159      0   0   0
   160   161      0   0   0
   161   112      0   0   0
   161   119      0   0   0
   161   154      0   0   0
   161   168      0   0   0
   161   203      0   0   0
   161   210      0   0   0
   161   160      0   0   0
   161   155      0   0   1
   162   113      0   0   0
   162   120      0   0   0
   162   155      0   0   0
   162   169      0   0   0
   162   204      0   0   0
   162   211      0   0   0
   162   163      0   0   0
   162   168      0   0  -1
   163   114      0   0   0
   163   121      0   0   0
   163   156      0   0   0
   163   170      0   0   0
   163   205      0   0   0
   163   212      0   0   0
   163   162      0   0   0
   163   164      0   0   0
   164   115      0   0   0
   164   122      0   0   0
   164   157      0   0   0
   164   171      0   0   0
   164   206      0   0   0
   164   213      0   0   0
   164   163      0   0   0
   164   165      0   0   0
   165   116      0   0   0
   165   123      0   0   0
   165   158      0   0   0
   165   172      0   0   0
   165   207      0   0   0
   165   214      0   0   0
   165   164      0   0   0
   165   166      0   0   0
   166   117      0   0   0
   166   124      0   0   0
   166   159      0   0   0
   166   173      0   0   0
   166   208      0   0   0
   166   215      0   0   0
   166   165      0   0   0
   166   167      0   0   0
   167   118      0   0   0
   167   125      0   0   0
   167   160      0   0   0
   167   174      0   0   0
   167   209      0   0   0
   167   216      0   0   0
   167   166      0   0   0
   167   168      0   0   0
   168   119      0   0   0
   168   126      0   0   0
   168   161      0   0   0
   168   175      0   0   0
   168   210      0   0   0
   168   217      0   0   0
   168   167      0   0   0
   168   162      0   0   1
   169   120      0   0   0
   169   127      0   0   0
   169   162      0   0   0
   169   176      0   0   0
   169   211      0   0   0
   169   218      0   0   0
   169   170      0   0   0
   169   175      0   0  -1
   170   121      0   0   0
   170   128      0   0   0
   170   163      0   0   0
   170   177      0   0   0
   170   212      0   0   0
   170   219      0   0   0
   170   169      0   0   0
   170   171      0   0   0
   171   122      0   0   0
   171   129      0   0   0
   171   164      0   0   0
   171   178      0   0   0
   171   213      0   0   0
   171   220      0   0   0
   171   170      0   0   0
   171   172      0   0   0
   172   123      0   0   0
   172   130      0   0   0
   172   165      0   0   0
   172   179      0   0   0
   172   214      0   0   0
   172   221      0   0   0
   172   171      0   0   0
   172   173      0   0   0
   173   124      0   0   0
   173   131      0   0   0
   173   166      0   0   0
   173   180      0   0   0
   173   215      0   0   0
   173   222      0   0   0
   173   172      0   0   0
   173   174      0   0   0
   174   125      0   0   0
   174   132      0   0   0
   174   167      0   0   0
   174   181      0   0   0
   174   216      0   0   0
   174   223      0   0   0
   174   173      0   0   0
   174   175      0   0   0
   175   126      0   0   0
   175   133      0   0   0
   175   168      0   0   0
   175   182      0   0   0
   175   217      0   0   0
   175   224      0   0   0
   175   174      0   0   0
   175   169      0   0   1
   176   127      0   0   0
   176   134      0   0   0
   176   169      0   0   0
   176   183      0   0   0
   176   218      0   0   0
   176   225      0   0   0
   176   177      0   0   0
   176   182      0   0  -1
   177   128      0   0   0
   177   135      0   0   0
   177   170      0   0   0
   177   184      0   0   0
   177   219      0   0   0
   177   226      0   0   0
   177   176      0   0   0
   177   178      0   0   0
   178   129      0   0   0
   178   136      0   0   0
   178   171      0   0   0
   178   185      0   0   0
   178   220      0   0   0
   178   227      0   0   0
   178   177      0   0   0
   178   179      0   0   0
   179   130      0   0   0
   179   137      0   0   0
   179   172      0   0   0
   179   186      0   0   0
   179   221      0   0   0
   179   228      0   0   0
   179   178      0   0   0
   179   180      0   0   0
   180   131      0   0   0
   180   138      0   0   0
   180   173      0   0   0
   180   187      0   0   0
   180   222      0   0   0
   180   229      0   0   0
   180   179      0   0   0
   180   181      0   0   0
   181   132      0   0   0
   181   139      0   0   0
   181   174      0   0   0
   181   188      0   0   0
   181   223      0   0   0
   181   230      0   0   0
   181   180      0   0   0
   181   182      0   0   0
   182   133      0   0   0
   182   140      0   0   0
   182   175      0   0   0
   182   189      0   0   0
   182   224      0   0   0
   182   231      0   0   0
   182   181      0   0   0
   182   176      0   0   1
   183   134      0   0   0
   183   141      0   0   0
   183   176      0   0   0
   183   190      0   0   0
   183   225      0   0   0
   183   232      0   0   0
   183   184      0   0   0
   183   189      0   0  -1
   184   135      0   0   0
   184   142      0   0   0
   184   177      0   0   0
   184   191      0   0   0
   184   226      0   0   0
   184   233      0   0   0
   184   183      0   0   0
   184   185      0   0   0
   185   136      0   0   0
   185   143      0   0   0
   185   178      0   0   0
   185   192      0   0   0
   185   227      0   0   0
   185   234      0   0   0
   185   184      0   0   0
   185   186      0   0   0
   186   137      0   0   0
   186   144      0   0   0
   186   179      0   0   0
   186   193      0   0   0
   186   228      0   0   0
   186   235      0   0   0
   186   185      0   0   0
   186   187      0   0   0
   187   138      0   0   0
   187   145      0   0   0
   187   180      0   0   0
   187   194      0   0   0
   187   229      0   0   0
   187   236      0   0   0
   187   186      0   0   0
   187   188      0   0   0
   188   139      0   0   0
   188   146      0   0   0
   188   181      0   0   0
   188   195      0   0   0
   188   230      0   0   0
   188   237      0   0   0
   188   187      0   0   0
   188   189      0   0   0
   189   140      0   0   0
   189   147      0   0   0
   189   182      0   0   0
   189   196      0   0   0
   189   231      0   0   0
   189   238      0   0   0
   189   188      0   0   0
   189   183      0   0   1
   190   141      0   0   0
   190   183      0   0   0
   190   232      0   0   0
   190   239      0   0   0
   190    99      0   1   0
   190   148      0   1   0
   190   191      0   0   0
   190   196      0   0  -1
   191   142      0   0   0
   191   184      0   0   0
   191   233      0   0   0
   191   240      0   0   0
   191   100      0   1   0
   191   149      0   1   0
   191   190      0   0   0
   191   192      0   0   0
   192   143      0   0   0
   192   185      0   0   0
   192   234      0   0   0
   192   241      0   0   0
   192   101      0   1   0
   192   150      0   1   0
   192   191      0   0   0
   192   193      0   0   0
   193   144      0   0   0
   193   186      0   0   0
   193   235      0   0   0
   193   242      0   0   0
   193   102      0   1   0
   193   151      0   1   0
   193   192      0   0   0
   193   194      0   0   0
   194   145      0   0   0
   194   187      0   0   0
   194   236      0   0   0
   194   243      0   0   0
   194   103      0   1   0
   194   152      0   1   0
   194   193      0   0   0
   194   195      0   0   0
   195   146      0   0   0
   195   188      0   0   0
   195   237      0   0   0
   195   244      0   0   0
   195   104      0   1   0
   195   153      0   1   0
   195   194      0   0   0
   195   196      0   0   0
   196   147      0   0   0
   196   189      0   0   0
   196   238      0   0   0
   196   245      0   0   0
   196   105      0   1   0
   196   154      0   1   0
   196   195      0   0   0
   196   190      0   0   1
   197   148      0   0   0
   197   155      0   0   0
   197   204      0   0   0
   197   246      0   0   0
   197   239      0  -1   0
   197   288      0  -1   0
   197   198      0   0   0
   197   203      0   0  -1
   198   149      0   0   0
   198   156      0   0   0
   198   205      0   0   0
   198   247      0   0   0
   198   240      0  -1   0
   198   289      0  -1   0
   198   197      0   0   0
   198   199      0   0   0
   199   150      0   0   0
   199   157      0   0   0
   199   206      0   0   0
   199   248      0   0   0
   199   241      0  -1   0
   199   290      0  -1   0
   199   198      0   0   0
   199   200      0   0   0
   200   151      0   0   0
   200   158      0   0   0
   200   207      0   0   0
   200   249      0   0   0
   200   242      0  -1   0
   200   291      0  -1   0
   200   199      0   0   0
   200   201      0   0   0
   201   152      0   0   0
   201   159      0   0   0
   201   208      0   0   0
   201   250      0   0   0
   201   243      0  -1   0
   201   292      0  -1   0
   201   200      0   0   0
   201   202      0   0   0
   202   153      0   0   0
   202   160      0   0   0
   202   209      0   0   0
   202   251      0   0   0
   202   244      0  -1   0
   202   293      0  -1   0
   202   201      0   0   0
   202   203      0   0   0
   203   154      0   0   0
   203   161      0   0   0
   203   210      0   0   0
   203   252      0   0   0
   203   245      0  -1   0
   203   294      0  -1   0
   203   202      0   0   0
   203   197      0   0   1
   204   155      0   0   0
   204   162      0   0   0
   204   197      0   0   0
   204   211      0   0   0
   204   246      0   0   0
   204   253      0   0   0
   204   205      0   0   0
   204   210      0   0  -1
   205   156      0   0   0
   205   163      0   0   0
   205   198      0   0   0
   205   212      0   0   0
   205   247      0   0   0
   205   254      0   0   0
   205   204      0   0   0
   205   206      0   0   0
   206   157      0   0   0
   206   164      0   0   0
   206   199      0   0   0
   206   213      0   0   0
   206   248      0   0   0
   206   255      0   0   0
   206   205      0   0   0
   206   207      0   0   0
   207   158      0   0   0
   207   165      0   0   0
   207   200      0   0   0
   207   214      0   0   0
   207   249      0   0   0
   207   256      0   0   0
   207   206      0   0   0
   207   208      0   0   0
   208   159      0   0   0
   208   166      0   0   0
   208   201      0   0   0
   208   215      0   0   0
   208   250      0   0   0
   208   257      0   0   0
   208   207      0   0   0
   208   209      0   0   0
   209   160      0   0   0
   209   167      0   0   0
   209   202      0   0   0
   209   216      0   0   0
   209   251      0   0   0
   209   258      0   0   0
   209   208      0   0   0
   209   210      0   0   0
   210   161      0   0   0
   210   168      0   0   0
   210   203      0   0   0
   210   217      0   0   0
   210   252      0   0   0
   210   259      0   0   0
   210   209      0   0   0
   210   204      0   0   1
   211   162      0   0   0
   211   169      0   0   0
   211   204      0   0   0
   211   218      0   0   0
   211   253      0   0   0
   211   260      0   0   0
   211   212      0   0   0
   211   217      0   0  -1
   212   163      0   0   0
   212   170      0   0   0
   212   205      0   0   0
   212   219      0   0   0
   212   254      0   0   0
   212   261      0   0   0
   212   211      0   0   0
   212   213      0   0   0
   213   164      0   0   0
   213   171      0   0   0
   213   206      0   0   0
   213   220      0   0   0
   213   255      0   0   0
   213   262      0   0   0
   213   212      0   0   0
   213   214      0   0   0
   214   165      0   0   0
   214   172      0   0   0
   214   207      0   0   0
   214   221      0   0   0
   214   256      0   0   0
   214   263      0   0   0
   214   213      0   0   0
   214   215      0   0   0
   215   166      0   0   0
   215   173      0   0   0
   215   208      0   0   0
   215   222      0   0   0
   215   257      0   0   0
   215   264      0   0   0
   215   214      0   0   0
   215   216      0   0   0
   216   167      0   0   0
   216   174      0   0   0
   216   209      0   0   0
   216   223      0   0   0
   216   258      0   0   0
   216   265      0   0   0
   216   215      0   0   0
   216   217      0   0   0
   217   168      0   0   0
   217   175      0   0   0
   217   210      0   0   0
   217   224      0   0   0
   217   259      0   0   0
   217   266      0   0   0
   217   216      0   0   0
   217   211      0   0   1
   218   169      0   0   0
   218   176      0   0   0
   218   211      0   0   0
   218   225      0   0   0
   218   260      0   0   0
   218   267      0   0   0
   218   219      0   0   0
   218   224      0   0  -1
   219   170      0   0   0
   219   177      0   0   0
   219   212      0   0   0
   219   226      0   0   0
   219   261      0   0   0
   219   268      0   0   0
   219   218      0   0   0
   219   220      0   0   0
   220   171      0   0   0
   220   178      0   0   0
   220   213      0   0   0
   220   227      0   0   0
   220   262      0   0   0
   220   269      0   0   0
   220   219      0   0   0
   220   221      0   0   0
   221   172      0   0   0
   221   179      0   0   0
   221   214      0   0   0
   221   228      0   0   0
   221   263      0   0   0
   221   270      0   0   0
   221   220      0   0   0
   221   222      0   0   0
   222   173      0   0   0
   222   180      0   0   0
   222   215      0   0   0
   222   229      0   0   0
   222   264      0   0   0
   222   271      0   0   0
   222   221      0   0   0
   222   223      0   0   0
   223   174      0   0   0
   223   181      0   0   0
   223   216      0   0   0
   223   230      0   0   0
   223   265      0   0   0
   223   272      0   0   0
   223   222      0   0   0
   223   224      0   0   0
   224   175      0   0   0
   224   182      0   0   0
   224   217      0   0   0
   224   231      0   0   0
   224   266      0   0   0
   224   273      0   0   0
   224   223      0   0   0
   224   218      0   0   1
   225   176      0   0   0
   225   183      0   0   0
   225   218      0   0   0
   225   232      0   0   0
   225   267      0   0   0
   225   274      0   0   0
   225   226      0   0   0
   225   231      0   0  -1
   226   177      0   0   0
[...]
   255   206      0   0   0
   255   213      0   0   0
   255   248      0   0   0
   255   262      0   0   0
   255   297      0   0   0
   255   304      0   0   0
   255   254      0   0   0
   255   256      0   0   0
   256   207      0   0   0
   256   214      0   0   0
   256   249      0   0   0
   256   263      0   0   0
   256   298      0   0   0
   256   305      0   0   0
   256   255      0   0   0
   256   257      0   0   0
   257   208      0   0   0
   257   215      0   0   0
   257   250      0   0   0
   257   264      0   0   0
   257   299      0   0   0
   257   306      0   0   0
   257   256      0   0   0
   257   258      0   0   0
   258   209      0   0   0
   258   216      0   0   0
   258   251      0   0   0
   258   265      0   0   0
   258   300      0   0   0
   258   307      0   0   0
   258   257      0   0   0
   258   259      0   0   0
   259   210      0   0   0
   259   217      0   0   0
   259   252      0   0   0
   259   266      0   0   0
   259   301      0   0   0
   259   308      0   0   0
   259   258      0   0   0
   259   253      0   0   1
   260   211      0   0   0
   260   218      0   0   0
   260   253      0   0   0
   260   267      0   0   0
   260   302      0   0   0
   260   309      0   0   0
   260   261      0   0   0
   260   266      0   0  -1
   261   212      0   0   0
   261   219      0   0   0
   261   254      0   0   0
   261   268      0   0   0
   261   303      0   0   0
   261   310      0   0   0
   261   260      0   0   0
   261   262      0   0   0
   262   213      0   0   0
   262   220      0   0   0
   262   255      0   0   0
   262   269      0   0   0
   262   304      0   0   0
   262   311      0   0   0
   262   261      0   0   0
   262   263      0   0   0
   263   214      0   0   0
   263   221      0   0   0
   263   256      0   0   0
   263   270      0   0   0
   263   305      0   0   0
   263   312      0   0   0
   263   262      0   0   0
   263   264      0   0   0
   264   215      0   0   0
   264   222      0   0   0
   264   257      0   0   0
   264   271      0   0   0
   264   306      0   0   0
   264   313      0   0   0
   264   263      0   0   0
   264   265      0   0   0
   265   216      0   0   0
   265   223      0   0   0
   265   258      0   0   0
   265   272      0   0   0
   265   307      0   0   0
   265   314      0   0   0
   265   264      0   0   0
   265   266      0   0   0
   266   217      0   0   0
   266   224      0   0   0
   266   259      0   0   0
   266   273      0   0   0
   266   308      0   0   0
   266   315      0   0   0
   266   265      0   0   0
   266   260      0   0   1
   267   218      0   0   0
   267   225      0   0   0
   267   260      0   0   0
   267   274      0   0   0
   267   309      0   0   0
   267   316      0   0   0
   267   268      0   0   0
   267   273      0   0  -1
   268   219      0   0   0
   268   226      0   0   0
   268   261      0   0   0
   268   275      0   0   0
   268   310      0   0   0
   268   317      0   0   0
   268   267      0   0   0
   268   269      0   0   0
   269   220      0   0   0
   269   227      0   0   0
   269   262      0   0   0
   269   276      0   0   0
   269   311      0   0   0
   269   318      0   0   0
   269   268      0   0   0
   269   270      0   0   0
   270   221      0   0   0
   270   228      0   0   0
   270   263      0   0   0
   270   277      0   0   0
   270   312      0   0   0
   270   319      0   0   0
   270   269      0   0   0
   270   271      0   0   0
   271   222      0   0   0
   271   229      0   0   0
   271   264      0   0   0
   271   278      0   0   0
   271   313      0   0   0
   271   320      0   0   0
   271   270      0   0   0
   271   272      0   0   0
   272   223      0   0   0
   272   230      0   0   0
   272   265      0   0   0
   272   279      0   0   0
   272   314      0   0   0
   272   321      0   0   0
   272   271      0   0   0
   272   273      0   0   0
   273   224      0   0   0
   273   231      0   0   0
   273   266      0   0   0
   273   280      0   0   0
   273   315      0   0   0
   273   322      0   0   0
   273   272      0   0   0
   273   267      0   0   1
   274   225      0   0   0
   274   232      0   0   0
   274   267      0   0   0
   274   281      0   0   0
   274   316      0   0   0
   274   323      0   0   0
   274   275      0   0   0
   274   280      0   0  -1
   275   226      0   0   0
   275   233      0   0   0
   275   268      0   0   0
   275   282      0   0   0
   275   317      0   0   0
   275   324      0   0   0
   275   274      0   0   0
   275   276      0   0   0
   276   227      0   0   0
   276   234      0   0   0
   276   269      0   0   0
   276   283      0   0   0
   276   318      0   0   0
   276   325      0   0   0
   276   275      0   0   0
   276   277      0   0   0
   277   228      0   0   0
   277   235      0   0   0
   277   270      0   0   0
   277   284      0   0   0
   277   319      0   0   0
   277   326      0   0   0
   277   276      0   0   0
   277   278      0   0   0
   278   229      0   0   0
   278   236      0   0   0
   278   271      0   0   0
   278   285      0   0   0
   278   320      0   0   0
   278   327      0   0   0
   278   277      0   0   0
   278   279      0   0   0
   279   230      0   0   0
   279   237      0   0   0
   279   272      0   0   0
   279   286      0   0   0
   279   321      0   0   0
   279   328      0   0   0
   279   278      0   0   0
   279   280      0   0   0
   280   231      0   0   0
   280   238      0   0   0
   280   273      0   0   0
   280   287      0   0   0
   280   322      0   0   0
   280   329      0   0   0
   280   279      0   0   0
   280   274      0   0   1
   281   232      0   0   0
   281   239      0   0   0
   281   274      0   0   0
   281   288      0   0   0
   281   323      0   0   0
   281   330      0   0   0
   281   282      0   0   0
   281   287      0   0  -1
   282   233      0   0   0
   282   240      0   0   0
   282   275      0   0   0
   282   289      0   0   0
   282   324      0   0   0
   282   331      0   0   0
   282   281      0   0   0
   282   283      0   0   0
   283   234      0   0   0
   283   241      0   0   0
   283   276      0   0   0
   283   290      0   0   0
   283   325      0   0   0
   283   332      0   0   0
   283   282      0   0   0
   283   284      0   0   0
   284   235      0   0   0
   284   242      0   0   0
   284   277      0   0   0
   284   291      0   0   0
   284   326      0   0   0
   284   333      0   0   0
   284   283      0   0   0
   284   285      0   0   0
   285   236      0   0   0
   285   243      0   0   0
   285   278      0   0   0
   285   292      0   0   0
   285   327      0   0   0
   285   334      0   0   0
   285   284      0   0   0
   285   286      0   0   0
   286   237      0   0   0
   286   244      0   0   0
   286   279      0   0   0
   286   293      0   0   0
   286   328      0   0   0
   286   335      0   0   0
   286   285      0   0   0
   286   287      0   0   0
   287   238      0   0   0
   287   245      0   0   0
   287   280      0   0   0
   287   294      0   0   0
   287   329      0   0   0
   287   336      0   0   0
   287   286      0   0   0
   287   281      0   0   1
   288   239      0   0   0
   288   281      0   0   0
   288   330      0   0   0
   288   337      0   0   0
   288   197      0   1   0
   288   246      0   1   0
   288   289      0   0   0
   288   294      0   0  -1
   289   240      0   0   0
   289   282      0   0   0
   289   331      0   0   0
   289   338      0   0   0
   289   198      0   1   0
   289   247      0   1   0
   289   288      0   0   0
   289   290      0   0   0
   290   241      0   0   0
   290   283      0   0   0
   290   332      0   0   0
   290   339      0   0   0
   290   199      0   1   0
   290   248      0   1   0
   290   289      0   0   0
   290   291      0   0   0
   291   242      0   0   0
   291   284      0   0   0
   291   333      0   0   0
   291   340      0   0   0
   291   200      0   1   0
   291   249      0   1   0
   291   290      0   0   0
   291   292      0   0   0
   292   243      0   0   0
   292   285      0   0   0
   292   334      0   0   0
   292   341      0   0   0
   292   201      0   1   0
   292   250      0   1   0
   292   291      0   0   0
   292   293      0   0   0
   293   244      0   0   0
   293   286      0   0   0
   293   335      0   0   0
   293   342      0   0   0
   293   202      0   1   0
   293   251      0   1   0
   293   292      0   0   0
   293   294      0   0   0
   294   245      0   0   0
   294   287      0   0   0
   294   336      0   0   0
   294   343      0   0   0
   294   203      0   1   0
   294   252      0   1   0
   294   293      0   0   0
   294   288      0   0   1
   295   246      0   0   0
   295   253      0   0   0
   295   302      0   0   0
   295     1      1   0   0
   295    43      1  -1   0
   295   337      0  -1   0
   295   296      0   0   0
   295   301      0   0  -1
   296   247      0   0   0
   296   254      0   0   0
   296   303      0   0   0
   296     2      1   0   0
   296    44      1  -1   0
   296   338      0  -1   0
   296   295      0   0   0
   296   297      0   0   0
   297   248      0   0   0
   297   255      0   0   0
   297   304      0   0   0
   297     3      1   0   0
   297    45      1  -1   0
   297   339      0  -1   0
   297   296      0   0   0
   297   298      0   0   0
   298   249      0   0   0
   298   256      0   0   0
   298   305      0   0   0
   298     4      1   0   0
   298    46      1  -1   0
   298   340      0  -1   0
   298   297      0   0   0
   298   299      0   0   0
   299   250      0   0   0
   299   257      0   0   0
   299   306      0   0   0
   299     5      1   0   0
   299    47      1  -1   0
   299   341      0  -1   0
   299   298      0   0   0
   299   300      0   0   0
   300   251      0   0   0
   300   258      0   0   0
   300   307      0   0   0
   300     6      1   0   0
   300    48      1  -1   0
   300   342      0  -1   0
   300   299      0   0   0
   300   301      0   0   0
   301   252      0   0   0
   301   259      0   0   0
   301   308      0   0   0
   301     7      1   0   0
   301    49      1  -1   0
   301   343      0  -1   0
   301   300      0   0   0
   301   295      0   0   1
   302   253      0   0   0
   302   260      0   0   0
   302   295      0   0   0
   302   309      0   0   0
   302     1      1   0   0
   302     8      1   0   0
   302   303      0   0   0
   302   308      0   0  -1
   303   254      0   0   0
   303   261      0   0   0
   303   296      0   0   0
   303   310      0   0   0
   303     2      1   0   0
   303     9      1   0   0
   303   302      0   0   0
   303   304      0   0   0
   304   255      0   0   0
   304   262      0   0   0
   304   297      0   0   0
   304   311      0   0   0
   304     3      1   0   0
   304    10      1   0   0
   304   303      0   0   0
   304   305      0   0   0
   305   256      0   0   0
   305   263      0   0   0
   305   298      0   0   0
   305   312      0   0   0
   305     4      1   0   0
   305    11      1   0   0
   305   304      0   0   0
   305   306      0   0   0
   306   257      0   0   0
   306   264      0   0   0
   306   299      0   0   0
   306   313      0   0   0
   306     5      1   0   0
   306    12      1   0   0
   306   305      0   0   0
   306   307      0   0   0
   307   258      0   0   0
   307   265      0   0   0
   307   300      0   0   0
   307   314      0   0   0
   307     6      1   0   0
   307    13      1   0   0
   307   306      0   0   0
   307   308      0   0   0
   308   259      0   0   0
   308   266      0   0   0
   308   301      0   0   0
   308   315      0   0   0
   308     7      1   0   0
   308    14      1   0   0
   308   307      0   0   0
   308   302      0   0   1
   309   260      0   0   0
   309   267      0   0   0
   309   302      0   0   0
   309   316      0   0   0
   309     8      1   0   0
   309    15      1   0   0
   309   310      0   0   0
   309   315      0   0  -1
   310   261      0   0   0
   310   268      0   0   0
   310   303      0   0   0
   310   317      0   0   0
   310     9      1   0   0
   310    16      1   0   0
   310   309      0   0   0
   310   311      0   0   0
   311   262      0   0   0
   311   269      0   0   0
   311   304      0   0   0
   311   318      0   0   0
   311    10      1   0   0
   311    17      1   0   0
   311   310      0   0   0
   311   312      0   0   0
   312   263      0   0   0
   312   270      0   0   0
   312   305      0   0   0
   312   319      0   0   0
   312    11      1   0   0
   312    18      1   0   0
   312   311      0   0   0
   312   313      0   0   0
   313   264      0   0   0
   313   271      0   0   0
   313   306      0   0   0
   313   320      0   0   0
   313    12      1   0   0
   313    19      1   0   0
   313   312      0   0   0
   313   314      0   0   0
   314   265      0   0   0
   314   272      0   0   0
   314   307      0   0   0
   314   321      0   0   0
   314    13      1   0   0
   314    20      1   0   0
   314   313      0   0   0
   314   315      0   0   0
   315   266      0   0   0
   315   273      0   0   0
   315   308      0   0   0
   315   322      0   0   0
   315    14      1   0   0
   315    21      1   0   0
   315   314      0   0   0
   315   309      0   0   1
   316   267      0   0   0
   316   274      0   0   0
   316   309      0   0   0
   316   323      0   0   0
   316    15      1   0   0
   316    22      1   0   0
   316   317      0   0   0
   316   322      0   0  -1
   317   268      0   0   0
   317   275      0   0   0
   317   310      0   0   0
   317   324      0   0   0
   317    16      1   0   0
   317    23      1   0   0
   317   316      0   0   0
   317   318      0   0   0
   318   269      0   0   0
   318   276      0   0   0
   318   311      0   0   0
   318   325      0   0   0
   318    17      1   0   0
   318    24      1   0   0
   318   317      0   0   0
   318   319      0   0   0
   319   270      0   0   0
   319   277      0   0   0
   319   312      0   0   0
   319   326      0   0   0
   319    18      1   0   0
   319    25      1   0   0
   319   318      0   0   0
   319   320      0   0   0
   320   271      0   0   0
   320   278      0   0   0
   320   313      0   0   0
   320   327      0   0   0
   320    19      1   0   0
   320    26      1   0   0
   320   319      0   0   0
   320   321      0   0   0
   321   272      0   0   0
   321   279      0   0   0
   321   314      0   0   0
   321   328      0   0   0
   321    20      1   0   0
   321    27      1   0   0
   321   320      0   0   0
   321   322      0   0   0
   322   273      0   0   0
   322   280      0   0   0
   322   315      0   0   0
   322   329      0   0   0
   322    21      1   0   0
   322    28      1   0   0
   322   321      0   0   0
   322   316      0   0   1
   323   274      0   0   0
   323   281      0   0   0
   323   316      0   0   0
   323   330      0   0   0
   323    22      1   0   0
   323    29      1   0   0
   323   324      0   0   0
   323   329      0   0  -1
   324   275      0   0   0
   324   282      0   0   0
   324   317      0   0   0
   324   331      0   0   0
   324    23      1   0   0
   324    30      1   0   0
   324   323      0   0   0
   324   325      0   0   0
   325   276      0   0   0
   325   283      0   0   0
   325   318      0   0   0
   325   332      0   0   0
   325    24      1   0   0
   325    31      1   0   0
   325   324      0   0   0
   325   326      0   0   0
   326   277      0   0   0
   326   284      0   0   0
   326   319      0   0   0
   326   333      0   0   0
   326    25      1   0   0
   326    32      1   0   0
   326   325      0   0   0
   326   327      0   0   0
   327   278      0   0   0
   327   285      0   0   0
   327   320      0   0   0
   327   334      0   0   0
   327    26      1   0   0
   327    33      1   0   0
   327   326      0   0   0
   327   328      0   0   0
   328   279      0   0   0
   328   286      0   0   0
   328   321      0   0   0
   328   335      0   0   0
   328    27      1   0   0
   328    34      1   0   0
   328   327      0   0   0
   328   329      0   0   0
   329   280      0   0   0
   329   287      0   0   0
   329   322      0   0   0
   329   336      0   0   0
   329    28      1   0   0
   329    35      1   0   0
   329   328      0   0   0
   329   323      0   0   1
   330   281      0   0   0
   330   288      0   0   0
   330   323      0   0   0
   330   337      0   0   0
   330    29      1   0   0
   330    36      1   0   0
   330   331      0   0   0
   330   336      0   0  -1
   331   282      0   0   0
   331   289      0   0   0
   331   324      0   0   0
   331   338      0   0   0
   331    30      1   0   0
   331    37      1   0   0
   331   330      0   0   0
   331   332      0   0   0
   332   283      0   0   0
   332   290      0   0   0
   332   325      0   0   0
   332   339      0   0   0
   332    31      1   0   0
   332    38      1   0   0
   332   331      0   0   0
   332   333      0   0   0
   333   284      0   0   0
   333   291      0   0   0
   333   326      0   0   0
   333   340      0   0   0
   333    32      1   0   0
   333    39      1   0   0
   333   332      0   0   0
   333   334      0   0   0
   334   285      0   0   0
   334   292      0   0   0
   334   327      0   0   0
   334   341      0   0   0
   334    33      1   0   0
   334    40      1   0   0
   334   333      0   0   0
   334   335      0   0   0
   335   286      0   0   0
   335   293      0   0   0
   335   328      0   0   0
   335   342      0   0   0
   335    34      1   0   0
   335    41      1   0   0
   335   334      0   0   0
   335   336      0   0   0
   336   287      0   0   0
   336   294      0   0   0
   336   329      0   0   0
   336   343      0   0   0
   336    35      1   0   0
   336    42      1   0   0
   336   335      0   0   0
   336   330      0   0   1
   337   288      0   0   0
   337   330      0   0   0
   337    36      1   0   0
   337    43      1   0   0
   337   246      0   1   0
   337   295      0   1   0
   337   338      0   0   0
   337   343      0   0  -1
   338   289      0   0   0
   338   331      0   0   0
   338    37      1   0   0
   338    44      1   0   0
   338   247      0   1   0
   338   296      0   1   0
   338   337      0   0   0
   338   339      0   0   0
   339   290      0   0   0
   339   332      0   0   0
   339    38      1   0   0
   339    45      1   0   0
   339   248      0   1   0
   339   297      0   1   0
   339   338      0   0   0
   339   340      0   0   0
   340   291      0   0   0
   340   333      0   0   0
   340    39      1   0   0
   340    46      1   0   0
   340   249      0   1   0
   340   298      0   1   0
   340   339      0   0   0
   340   341      0   0   0
   341   292      0   0   0
   341   334      0   0   0
   341    40      1   0   0
   341    47      1   0   0
   341   250      0   1   0
   341   299      0   1   0
   341   340      0   0   0
   341   342      0   0   0
   342   293      0   0   0
   342   335      0   0   0
   342    41      1   0   0
   342    48      1   0   0
   342   251      0   1   0
   342   300      0   1   0
   342   341      0   0   0
   342   343      0   0   0
   343   294      0   0   0
   343   336      0   0   0
   343    42      1   0   0
   343    49      1   0   0
   343   252      0   1   0
   343   301      0   1   0
   343   342      0   0   0
   343   337      0   0   1
end nnkpts

begin exclude_bands
   0
end exclude_bands
