File written on 24Oct2023 at 15:37:29 

calc_only_A  :  F

begin real_lattice
  -1.6639499   1.6639499   1.6639499
   1.6639499  -1.6639499   1.6639499
   1.6639499   1.6639499  -1.6639499
end real_lattice

begin recip_lattice
   0.0000000   1.8880332   1.8880332
   1.8880332   0.0000000   1.8880332
   1.8880332   1.8880332   0.0000000
end recip_lattice

begin kpoints
  9261
    0.00000000    0.00000000    0.00000000
    0.00000000    0.00000000    0.04761905
    0.00000000    0.00000000    0.09523810
    0.00000000    0.00000000    0.14285714
    0.00000000    0.00000000    0.19047619
    0.00000000    0.00000000    0.23809524
    0.00000000    0.00000000    0.28571429
    0.00000000    0.00000000    0.33333333
    0.00000000    0.00000000    0.38095238
    0.00000000    0.00000000    0.42857143
    0.00000000    0.00000000    0.47619048
    0.00000000    0.00000000    0.52380952
    0.00000000    0.00000000    0.57142857
    0.00000000    0.00000000    0.61904762
    0.00000000    0.00000000    0.66666667
    0.00000000    0.00000000    0.71428571
    0.00000000    0.00000000    0.76190476
    0.00000000    0.00000000    0.80952381
    0.00000000    0.00000000    0.85714286
    0.00000000    0.00000000    0.90476190
    0.00000000    0.00000000    0.95238095
    0.00000000    0.04761905    0.00000000
    0.00000000    0.04761905    0.04761905
    0.00000000    0.04761905    0.09523810
    0.00000000    0.04761905    0.14285714
    0.00000000    0.04761905    0.19047619
    0.00000000    0.04761905    0.23809524
    0.00000000    0.04761905    0.28571429
    0.00000000    0.04761905    0.33333333
    0.00000000    0.04761905    0.38095238
    0.00000000    0.04761905    0.42857143
    0.00000000    0.04761905    0.47619048
    0.00000000    0.04761905    0.52380952
    0.00000000    0.04761905    0.57142857
    0.00000000    0.04761905    0.61904762
    0.00000000    0.04761905    0.66666667
    0.00000000    0.04761905    0.71428571
    0.00000000    0.04761905    0.76190476
    0.00000000    0.04761905    0.80952381
    0.00000000    0.04761905    0.85714286
    0.00000000    0.04761905    0.90476190
    0.00000000    0.04761905    0.95238095
    0.00000000    0.09523810    0.00000000
    0.00000000    0.09523810    0.04761905
    0.00000000    0.09523810    0.09523810
    0.00000000    0.09523810    0.14285714
    0.00000000    0.09523810    0.19047619
    0.00000000    0.09523810    0.23809524
    0.00000000    0.09523810    0.28571429
    0.00000000    0.09523810    0.33333333
    0.00000000    0.09523810    0.38095238
    0.00000000    0.09523810    0.42857143
    0.00000000    0.09523810    0.47619048
    0.00000000    0.09523810    0.52380952
    0.00000000    0.09523810    0.57142857
    0.00000000    0.09523810    0.61904762
    0.00000000    0.09523810    0.66666667
    0.00000000    0.09523810    0.71428571
    0.00000000    0.09523810    0.76190476
    0.00000000    0.09523810    0.80952381
    0.00000000    0.09523810    0.85714286
    0.00000000    0.09523810    0.90476190
    0.00000000    0.09523810    0.95238095
    0.00000000    0.14285714    0.00000000
    0.00000000    0.14285714    0.04761905
    0.00000000    0.14285714    0.09523810
    0.00000000    0.14285714    0.14285714
    0.00000000    0.14285714    0.19047619
    0.00000000    0.14285714    0.23809524
    0.00000000    0.14285714    0.28571429
    0.00000000    0.14285714    0.33333333
    0.00000000    0.14285714    0.38095238
    0.00000000    0.14285714    0.42857143
    0.00000000    0.14285714    0.47619048
    0.00000000    0.14285714    0.52380952
    0.00000000    0.14285714    0.57142857
    0.00000000    0.14285714    0.61904762
    0.00000000    0.14285714    0.66666667
    0.00000000    0.14285714    0.71428571
    0.00000000    0.14285714    0.76190476
    0.00000000    0.14285714    0.80952381
    0.00000000    0.14285714    0.85714286
    0.00000000    0.14285714    0.90476190
    0.00000000    0.14285714    0.95238095
    0.00000000    0.19047619    0.00000000
    0.00000000    0.19047619    0.04761905
    0.00000000    0.19047619    0.09523810
    0.00000000    0.19047619    0.14285714
    0.00000000    0.19047619    0.19047619
    0.00000000    0.19047619    0.23809524
    0.00000000    0.19047619    0.28571429
    0.00000000    0.19047619    0.33333333
    0.00000000    0.19047619    0.38095238
    0.00000000    0.19047619    0.42857143
    0.00000000    0.19047619    0.47619048
    0.00000000    0.19047619    0.52380952
    0.00000000    0.19047619    0.57142857
    0.00000000    0.19047619    0.61904762
    0.00000000    0.19047619    0.66666667
    0.00000000    0.19047619    0.71428571
    0.00000000    0.19047619    0.76190476
    0.00000000    0.19047619    0.80952381
    0.00000000    0.19047619    0.85714286
    0.00000000    0.19047619    0.90476190
    0.00000000    0.19047619    0.95238095
    0.00000000    0.23809524    0.00000000
    0.00000000    0.23809524    0.04761905
    0.00000000    0.23809524    0.09523810
    0.00000000    0.23809524    0.14285714
    0.00000000    0.23809524    0.19047619
    0.00000000    0.23809524    0.23809524
    0.00000000    0.23809524    0.28571429
    0.00000000    0.23809524    0.33333333
    0.00000000    0.23809524    0.38095238
    0.00000000    0.23809524    0.42857143
    0.00000000    0.23809524    0.47619048
    0.00000000    0.23809524    0.52380952
    0.00000000    0.23809524    0.57142857
    0.00000000    0.23809524    0.61904762
    0.00000000    0.23809524    0.66666667
    0.00000000    0.23809524    0.71428571
    0.00000000    0.23809524    0.76190476
    0.00000000    0.23809524    0.80952381
    0.00000000    0.23809524    0.85714286
    0.00000000    0.23809524    0.90476190
    0.00000000    0.23809524    0.95238095
    0.00000000    0.28571429    0.00000000
    0.00000000    0.28571429    0.04761905
    0.00000000    0.28571429    0.09523810
    0.00000000    0.28571429    0.14285714
    0.00000000    0.28571429    0.19047619
    0.00000000    0.28571429    0.23809524
    0.00000000    0.28571429    0.28571429
    0.00000000    0.28571429    0.33333333
    0.00000000    0.28571429    0.38095238
    0.00000000    0.28571429    0.42857143
    0.00000000    0.28571429    0.47619048
    0.00000000    0.28571429    0.52380952
    0.00000000    0.28571429    0.57142857
    0.00000000    0.28571429    0.61904762
    0.00000000    0.28571429    0.66666667
    0.00000000    0.28571429    0.71428571
    0.00000000    0.28571429    0.76190476
    0.00000000    0.28571429    0.80952381
    0.00000000    0.28571429    0.85714286
    0.00000000    0.28571429    0.90476190
    0.00000000    0.28571429    0.95238095
    0.00000000    0.33333333    0.00000000
    0.00000000    0.33333333    0.04761905
    0.00000000    0.33333333    0.09523810
    0.00000000    0.33333333    0.14285714
    0.00000000    0.33333333    0.19047619
    0.00000000    0.33333333    0.23809524
    0.00000000    0.33333333    0.28571429
    0.00000000    0.33333333    0.33333333
    0.00000000    0.33333333    0.38095238
    0.00000000    0.33333333    0.42857143
    0.00000000    0.33333333    0.47619048
    0.00000000    0.33333333    0.52380952
    0.00000000    0.33333333    0.57142857
    0.00000000    0.33333333    0.61904762
    0.00000000    0.33333333    0.66666667
    0.00000000    0.33333333    0.71428571
    0.00000000    0.33333333    0.76190476
    0.00000000    0.33333333    0.80952381
    0.00000000    0.33333333    0.85714286
    0.00000000    0.33333333    0.90476190
    0.00000000    0.33333333    0.95238095
    0.00000000    0.38095238    0.00000000
    0.00000000    0.38095238    0.04761905
    0.00000000    0.38095238    0.09523810
    0.00000000    0.38095238    0.14285714
    0.00000000    0.38095238    0.19047619
    0.00000000    0.38095238    0.23809524
    0.00000000    0.38095238    0.28571429
    0.00000000    0.38095238    0.33333333
    0.00000000    0.38095238    0.38095238
    0.00000000    0.38095238    0.42857143
    0.00000000    0.38095238    0.47619048
    0.00000000    0.38095238    0.52380952
    0.00000000    0.38095238    0.57142857
    0.00000000    0.38095238    0.61904762
    0.00000000    0.38095238    0.66666667
    0.00000000    0.38095238    0.71428571
    0.00000000    0.38095238    0.76190476
    0.00000000    0.38095238    0.80952381
    0.00000000    0.38095238    0.85714286
    0.00000000    0.38095238    0.90476190
    0.00000000    0.38095238    0.95238095
    0.00000000    0.42857143    0.00000000
    0.00000000    0.42857143    0.04761905
    0.00000000    0.42857143    0.09523810
    0.00000000    0.42857143    0.14285714
    0.00000000    0.42857143    0.19047619
    0.00000000    0.42857143    0.23809524
    0.00000000    0.42857143    0.28571429
    0.00000000    0.42857143    0.33333333
    0.00000000    0.42857143    0.38095238
    0.00000000    0.42857143    0.42857143
    0.00000000    0.42857143    0.47619048
    0.00000000    0.42857143    0.52380952
    0.00000000    0.42857143    0.57142857
    0.00000000    0.42857143    0.61904762
    0.00000000    0.42857143    0.66666667
    0.00000000    0.42857143    0.71428571
    0.00000000    0.42857143    0.76190476
    0.00000000    0.42857143    0.80952381
    0.00000000    0.42857143    0.85714286
    0.00000000    0.42857143    0.90476190
    0.00000000    0.42857143    0.95238095
    0.00000000    0.47619048    0.00000000
    0.00000000    0.47619048    0.04761905
    0.00000000    0.47619048    0.09523810
    0.00000000    0.47619048    0.14285714
    0.00000000    0.47619048    0.19047619
    0.00000000    0.47619048    0.23809524
    0.00000000    0.47619048    0.28571429
    0.00000000    0.47619048    0.33333333
    0.00000000    0.47619048    0.38095238
    0.00000000    0.47619048    0.42857143
    0.00000000    0.47619048    0.47619048
    0.00000000    0.47619048    0.52380952
    0.00000000    0.47619048    0.57142857
    0.00000000    0.47619048    0.61904762
    0.00000000    0.47619048    0.66666667
    0.00000000    0.47619048    0.71428571
    0.00000000    0.47619048    0.76190476
    0.00000000    0.47619048    0.80952381
    0.00000000    0.47619048    0.85714286
    0.00000000    0.47619048    0.90476190
    0.00000000    0.47619048    0.95238095
    0.00000000    0.52380952    0.00000000
    0.00000000    0.52380952    0.04761905
    0.00000000    0.52380952    0.09523810
    0.00000000    0.52380952    0.14285714
    0.00000000    0.52380952    0.19047619
    0.00000000    0.52380952    0.23809524
    0.00000000    0.52380952    0.28571429
    0.00000000    0.52380952    0.33333333
    0.00000000    0.52380952    0.38095238
    0.00000000    0.52380952    0.42857143
    0.00000000    0.52380952    0.47619048
    0.00000000    0.52380952    0.52380952
    0.00000000    0.52380952    0.57142857
    0.00000000    0.52380952    0.61904762
    0.00000000    0.52380952    0.66666667
    0.00000000    0.52380952    0.71428571
    0.00000000    0.52380952    0.76190476
    0.00000000    0.52380952    0.80952381
    0.00000000    0.52380952    0.85714286
    0.00000000    0.52380952    0.90476190
    0.00000000    0.52380952    0.95238095
    0.00000000    0.57142857    0.00000000
    0.00000000    0.57142857    0.04761905
    0.00000000    0.57142857    0.09523810
    0.00000000    0.57142857    0.14285714
    0.00000000    0.57142857    0.19047619
    0.00000000    0.57142857    0.23809524
    0.00000000    0.57142857    0.28571429
    0.00000000    0.57142857    0.33333333
    0.00000000    0.57142857    0.38095238
    0.00000000    0.57142857    0.42857143
    0.00000000    0.57142857    0.47619048
    0.00000000    0.57142857    0.52380952
    0.00000000    0.57142857    0.57142857
    0.00000000    0.57142857    0.61904762
    0.00000000    0.57142857    0.66666667
    0.00000000    0.57142857    0.71428571
    0.00000000    0.57142857    0.76190476
    0.00000000    0.57142857    0.80952381
    0.00000000    0.57142857    0.85714286
    0.00000000    0.57142857    0.90476190
    0.00000000    0.57142857    0.95238095
    0.00000000    0.61904762    0.00000000
    0.00000000    0.61904762    0.04761905
    0.00000000    0.61904762    0.09523810
    0.00000000    0.61904762    0.14285714
    0.00000000    0.61904762    0.19047619
    0.00000000    0.61904762    0.23809524
    0.00000000    0.61904762    0.28571429
    0.00000000    0.61904762    0.33333333
    0.00000000    0.61904762    0.38095238
    0.00000000    0.61904762    0.42857143
    0.00000000    0.61904762    0.47619048
    0.00000000    0.61904762    0.52380952
    0.00000000    0.61904762    0.57142857
    0.00000000    0.61904762    0.61904762
    0.00000000    0.61904762    0.66666667
    0.00000000    0.61904762    0.71428571
    0.00000000    0.61904762    0.76190476
    0.00000000    0.61904762    0.80952381
    0.00000000    0.61904762    0.85714286
    0.00000000    0.61904762    0.90476190
    0.00000000    0.61904762    0.95238095
    0.00000000    0.66666667    0.00000000
    0.00000000    0.66666667    0.04761905
    0.00000000    0.66666667    0.09523810
    0.00000000    0.66666667    0.14285714
    0.00000000    0.66666667    0.19047619
    0.00000000    0.66666667    0.23809524
    0.00000000    0.66666667    0.28571429
    0.00000000    0.66666667    0.33333333
    0.00000000    0.66666667    0.38095238
    0.00000000    0.66666667    0.42857143
    0.00000000    0.66666667    0.47619048
    0.00000000    0.66666667    0.52380952
    0.00000000    0.66666667    0.57142857
    0.00000000    0.66666667    0.61904762
    0.00000000    0.66666667    0.66666667
    0.00000000    0.66666667    0.71428571
    0.00000000    0.66666667    0.76190476
    0.00000000    0.66666667    0.80952381
    0.00000000    0.66666667    0.85714286
    0.00000000    0.66666667    0.90476190
    0.00000000    0.66666667    0.95238095
    0.00000000    0.71428571    0.00000000
    0.00000000    0.71428571    0.04761905
    0.00000000    0.71428571    0.09523810
    0.00000000    0.71428571    0.14285714
    0.00000000    0.71428571    0.19047619
    0.00000000    0.71428571    0.23809524
    0.00000000    0.71428571    0.28571429
    0.00000000    0.71428571    0.33333333
    0.00000000    0.71428571    0.38095238
    0.00000000    0.71428571    0.42857143
    0.00000000    0.71428571    0.47619048
    0.00000000    0.71428571    0.52380952
    0.00000000    0.71428571    0.57142857
    0.00000000    0.71428571    0.61904762
    0.00000000    0.71428571    0.66666667
    0.00000000    0.71428571    0.71428571
    0.00000000    0.71428571    0.76190476
    0.00000000    0.71428571    0.80952381
    0.00000000    0.71428571    0.85714286
    0.00000000    0.71428571    0.90476190
    0.00000000    0.71428571    0.95238095
    0.00000000    0.76190476    0.00000000
    0.00000000    0.76190476    0.04761905
    0.00000000    0.76190476    0.09523810
    0.00000000    0.76190476    0.14285714
    0.00000000    0.76190476    0.19047619
    0.00000000    0.76190476    0.23809524
    0.00000000    0.76190476    0.28571429
    0.00000000    0.76190476    0.33333333
    0.00000000    0.76190476    0.38095238
    0.00000000    0.76190476    0.42857143
    0.00000000    0.76190476    0.47619048
    0.00000000    0.76190476    0.52380952
    0.00000000    0.76190476    0.57142857
    0.00000000    0.76190476    0.61904762
    0.00000000    0.76190476    0.66666667
    0.00000000    0.76190476    0.71428571
    0.00000000    0.76190476    0.76190476
    0.00000000    0.76190476    0.80952381
    0.00000000    0.76190476    0.85714286
    0.00000000    0.76190476    0.90476190
    0.00000000    0.76190476    0.95238095
    0.00000000    0.80952381    0.00000000
    0.00000000    0.80952381    0.04761905
    0.00000000    0.80952381    0.09523810
    0.00000000    0.80952381    0.14285714
    0.00000000    0.80952381    0.19047619
    0.00000000    0.80952381    0.23809524
    0.00000000    0.80952381    0.28571429
    0.00000000    0.80952381    0.33333333
    0.00000000    0.80952381    0.38095238
    0.00000000    0.80952381    0.42857143
    0.00000000    0.80952381    0.47619048
    0.00000000    0.80952381    0.52380952
    0.00000000    0.80952381    0.57142857
    0.00000000    0.80952381    0.61904762
    0.00000000    0.80952381    0.66666667
    0.00000000    0.80952381    0.71428571
    0.00000000    0.80952381    0.76190476
    0.00000000    0.80952381    0.80952381
    0.00000000    0.80952381    0.85714286
    0.00000000    0.80952381    0.90476190
    0.00000000    0.80952381    0.95238095
    0.00000000    0.85714286    0.00000000
    0.00000000    0.85714286    0.04761905
    0.00000000    0.85714286    0.09523810
    0.00000000    0.85714286    0.14285714
    0.00000000    0.85714286    0.19047619
    0.00000000    0.85714286    0.23809524
    0.00000000    0.85714286    0.28571429
    0.00000000    0.85714286    0.33333333
    0.00000000    0.85714286    0.38095238
    0.00000000    0.85714286    0.42857143
    0.00000000    0.85714286    0.47619048
    0.00000000    0.85714286    0.52380952
    0.00000000    0.85714286    0.57142857
    0.00000000    0.85714286    0.61904762
    0.00000000    0.85714286    0.66666667
    0.00000000    0.85714286    0.71428571
    0.00000000    0.85714286    0.76190476
    0.00000000    0.85714286    0.80952381
    0.00000000    0.85714286    0.85714286
    0.00000000    0.85714286    0.90476190
    0.00000000    0.85714286    0.95238095
    0.00000000    0.90476190    0.00000000
    0.00000000    0.90476190    0.04761905
    0.00000000    0.90476190    0.09523810
    0.00000000    0.90476190    0.14285714
    0.00000000    0.90476190    0.19047619
    0.00000000    0.90476190    0.23809524
    0.00000000    0.90476190    0.28571429
    0.00000000    0.90476190    0.33333333
    0.00000000    0.90476190    0.38095238
    0.00000000    0.90476190    0.42857143
    0.00000000    0.90476190    0.47619048
    0.00000000    0.90476190    0.52380952
    0.00000000    0.90476190    0.57142857
    0.00000000    0.90476190    0.61904762
    0.00000000    0.90476190    0.66666667
    0.00000000    0.90476190    0.71428571
    0.00000000    0.90476190    0.76190476
    0.00000000    0.90476190    0.80952381
    0.00000000    0.90476190    0.85714286
    0.00000000    0.90476190    0.90476190
    0.00000000    0.90476190    0.95238095
    0.00000000    0.95238095    0.00000000
    0.00000000    0.95238095    0.04761905
    0.00000000    0.95238095    0.09523810
    0.00000000    0.95238095    0.14285714
    0.00000000    0.95238095    0.19047619
    0.00000000    0.95238095    0.23809524
    0.00000000    0.95238095    0.28571429
    0.00000000    0.95238095    0.33333333
    0.00000000    0.95238095    0.38095238
    0.00000000    0.95238095    0.42857143
    0.00000000    0.95238095    0.47619048
    0.00000000    0.95238095    0.52380952
    0.00000000    0.95238095    0.57142857
    0.00000000    0.95238095    0.61904762
    0.00000000    0.95238095    0.66666667
    0.00000000    0.95238095    0.71428571
    0.00000000    0.95238095    0.76190476
    0.00000000    0.95238095    0.80952381
    0.00000000    0.95238095    0.85714286
    0.00000000    0.95238095    0.90476190
    0.00000000    0.95238095    0.95238095
    0.04761905    0.00000000    0.00000000
    0.04761905    0.00000000    0.04761905
    0.04761905    0.00000000    0.09523810
    0.04761905    0.00000000    0.14285714
    0.04761905    0.00000000    0.19047619
    0.04761905    0.00000000    0.23809524
    0.04761905    0.00000000    0.28571429
    0.04761905    0.00000000    0.33333333
    0.04761905    0.00000000    0.38095238
    0.04761905    0.00000000    0.42857143
    0.04761905    0.00000000    0.47619048
    0.04761905    0.00000000    0.52380952
    0.04761905    0.00000000    0.57142857
    0.04761905    0.00000000    0.61904762
    0.04761905    0.00000000    0.66666667
    0.04761905    0.00000000    0.71428571
    0.04761905    0.00000000    0.76190476
    0.04761905    0.00000000    0.80952381
    0.04761905    0.00000000    0.85714286
    0.04761905    0.00000000    0.90476190
    0.04761905    0.00000000    0.95238095
    0.04761905    0.04761905    0.00000000
    0.04761905    0.04761905    0.04761905
    0.04761905    0.04761905    0.09523810
    0.04761905    0.04761905    0.14285714
    0.04761905    0.04761905    0.19047619
    0.04761905    0.04761905    0.23809524
    0.04761905    0.04761905    0.28571429
    0.04761905    0.04761905    0.33333333
    0.04761905    0.04761905    0.38095238
    0.04761905    0.04761905    0.42857143
    0.04761905    0.04761905    0.47619048
    0.04761905    0.04761905    0.52380952
    0.04761905    0.04761905    0.57142857
    0.04761905    0.04761905    0.61904762
    0.04761905    0.04761905    0.66666667
    0.04761905    0.04761905    0.71428571
    0.04761905    0.04761905    0.76190476
    0.04761905    0.04761905    0.80952381
    0.04761905    0.04761905    0.85714286
    0.04761905    0.04761905    0.90476190
    0.04761905    0.04761905    0.95238095
    0.04761905    0.09523810    0.00000000
    0.04761905    0.09523810    0.04761905
    0.04761905    0.09523810    0.09523810
    0.04761905    0.09523810    0.14285714
    0.04761905    0.09523810    0.19047619
    0.04761905    0.09523810    0.23809524
    0.04761905    0.09523810    0.28571429
    0.04761905    0.09523810    0.33333333
    0.04761905    0.09523810    0.38095238
    0.04761905    0.09523810    0.42857143
    0.04761905    0.09523810    0.47619048
    0.04761905    0.09523810    0.52380952
    0.04761905    0.09523810    0.57142857
    0.04761905    0.09523810    0.61904762
    0.04761905    0.09523810    0.66666667
    0.04761905    0.09523810    0.71428571
    0.04761905    0.09523810    0.76190476
    0.04761905    0.09523810    0.80952381
    0.04761905    0.09523810    0.85714286
    0.04761905    0.09523810    0.90476190
    0.04761905    0.09523810    0.95238095
    0.04761905    0.14285714    0.00000000
    0.04761905    0.14285714    0.04761905
    0.04761905    0.14285714    0.09523810
    0.04761905    0.14285714    0.14285714
    0.04761905    0.14285714    0.19047619
    0.04761905    0.14285714    0.23809524
    0.04761905    0.14285714    0.28571429
    0.04761905    0.14285714    0.33333333
    0.04761905    0.14285714    0.38095238
    0.04761905    0.14285714    0.42857143
    0.04761905    0.14285714    0.47619048
    0.04761905    0.14285714    0.52380952
    0.04761905    0.14285714    0.57142857
    0.04761905    0.14285714    0.61904762
    0.04761905    0.14285714    0.66666667
    0.04761905    0.14285714    0.71428571
    0.04761905    0.14285714    0.76190476
    0.04761905    0.14285714    0.80952381
    0.04761905    0.14285714    0.85714286
    0.04761905    0.14285714    0.90476190
    0.04761905    0.14285714    0.95238095
    0.04761905    0.19047619    0.00000000
    0.04761905    0.19047619    0.04761905
    0.04761905    0.19047619    0.09523810
    0.04761905    0.19047619    0.14285714
    0.04761905    0.19047619    0.19047619
    0.04761905    0.19047619    0.23809524
    0.04761905    0.19047619    0.28571429
    0.04761905    0.19047619    0.33333333
    0.04761905    0.19047619    0.38095238
    0.04761905    0.19047619    0.42857143
    0.04761905    0.19047619    0.47619048
    0.04761905    0.19047619    0.52380952
    0.04761905    0.19047619    0.57142857
    0.04761905    0.19047619    0.61904762
    0.04761905    0.19047619    0.66666667
    0.04761905    0.19047619    0.71428571
    0.04761905    0.19047619    0.76190476
    0.04761905    0.19047619    0.80952381
    0.04761905    0.19047619    0.85714286
    0.04761905    0.19047619    0.90476190
    0.04761905    0.19047619    0.95238095
    0.04761905    0.23809524    0.00000000
    0.04761905    0.23809524    0.04761905
    0.04761905    0.23809524    0.09523810
    0.04761905    0.23809524    0.14285714
    0.04761905    0.23809524    0.19047619
    0.04761905    0.23809524    0.23809524
    0.04761905    0.23809524    0.28571429
    0.04761905    0.23809524    0.33333333
    0.04761905    0.23809524    0.38095238
    0.04761905    0.23809524    0.42857143
    0.04761905    0.23809524    0.47619048
    0.04761905    0.23809524    0.52380952
    0.04761905    0.23809524    0.57142857
    0.04761905    0.23809524    0.61904762
    0.04761905    0.23809524    0.66666667
    0.04761905    0.23809524    0.71428571
    0.04761905    0.23809524    0.76190476
    0.04761905    0.23809524    0.80952381
    0.04761905    0.23809524    0.85714286
    0.04761905    0.23809524    0.90476190
    0.04761905    0.23809524    0.95238095
    0.04761905    0.28571429    0.00000000
    0.04761905    0.28571429    0.04761905
    0.04761905    0.28571429    0.09523810
    0.04761905    0.28571429    0.14285714
    0.04761905    0.28571429    0.19047619
    0.04761905    0.28571429    0.23809524
    0.04761905    0.28571429    0.28571429
    0.04761905    0.28571429    0.33333333
    0.04761905    0.28571429    0.38095238
    0.04761905    0.28571429    0.42857143
    0.04761905    0.28571429    0.47619048
    0.04761905    0.28571429    0.52380952
    0.04761905    0.28571429    0.57142857
    0.04761905    0.28571429    0.61904762
    0.04761905    0.28571429    0.66666667
    0.04761905    0.28571429    0.71428571
    0.04761905    0.28571429    0.76190476
    0.04761905    0.28571429    0.80952381
    0.04761905    0.28571429    0.85714286
    0.04761905    0.28571429    0.90476190
    0.04761905    0.28571429    0.95238095
    0.04761905    0.33333333    0.00000000
    0.04761905    0.33333333    0.04761905
    0.04761905    0.33333333    0.09523810
    0.04761905    0.33333333    0.14285714
    0.04761905    0.33333333    0.19047619
    0.04761905    0.33333333    0.23809524
    0.04761905    0.33333333    0.28571429
    0.04761905    0.33333333    0.33333333
    0.04761905    0.33333333    0.38095238
    0.04761905    0.33333333    0.42857143
    0.04761905    0.33333333    0.47619048
    0.04761905    0.33333333    0.52380952
    0.04761905    0.33333333    0.57142857
    0.04761905    0.33333333    0.61904762
    0.04761905    0.33333333    0.66666667
    0.04761905    0.33333333    0.71428571
    0.04761905    0.33333333    0.76190476
    0.04761905    0.33333333    0.80952381
    0.04761905    0.33333333    0.85714286
    0.04761905    0.33333333    0.90476190
    0.04761905    0.33333333    0.95238095
    0.04761905    0.38095238    0.00000000
    0.04761905    0.38095238    0.04761905
    0.04761905    0.38095238    0.09523810
    0.04761905    0.38095238    0.14285714
    0.04761905    0.38095238    0.19047619
    0.04761905    0.38095238    0.23809524
    0.04761905    0.38095238    0.28571429
    0.04761905    0.38095238    0.33333333
    0.04761905    0.38095238    0.38095238
    0.04761905    0.38095238    0.42857143
    0.04761905    0.38095238    0.47619048
    0.04761905    0.38095238    0.52380952
    0.04761905    0.38095238    0.57142857
    0.04761905    0.38095238    0.61904762
    0.04761905    0.38095238    0.66666667
    0.04761905    0.38095238    0.71428571
    0.04761905    0.38095238    0.76190476
    0.04761905    0.38095238    0.80952381
    0.04761905    0.38095238    0.85714286
    0.04761905    0.38095238    0.90476190
    0.04761905    0.38095238    0.95238095
    0.04761905    0.42857143    0.00000000
    0.04761905    0.42857143    0.04761905
    0.04761905    0.42857143    0.09523810
    0.04761905    0.42857143    0.14285714
    0.04761905    0.42857143    0.19047619
    0.04761905    0.42857143    0.23809524
    0.04761905    0.42857143    0.28571429
    0.04761905    0.42857143    0.33333333
    0.04761905    0.42857143    0.38095238
    0.04761905    0.42857143    0.42857143
    0.04761905    0.42857143    0.47619048
    0.04761905    0.42857143    0.52380952
    0.04761905    0.42857143    0.57142857
    0.04761905    0.42857143    0.61904762
    0.04761905    0.42857143    0.66666667
    0.04761905    0.42857143    0.71428571
    0.04761905    0.42857143    0.76190476
    0.04761905    0.42857143    0.80952381
    0.04761905    0.42857143    0.85714286
    0.04761905    0.42857143    0.90476190
    0.04761905    0.42857143    0.95238095
    0.04761905    0.47619048    0.00000000
    0.04761905    0.47619048    0.04761905
    0.04761905    0.47619048    0.09523810
    0.04761905    0.47619048    0.14285714
    0.04761905    0.47619048    0.19047619
    0.04761905    0.47619048    0.23809524
    0.04761905    0.47619048    0.28571429
    0.04761905    0.47619048    0.33333333
    0.04761905    0.47619048    0.38095238
    0.04761905    0.47619048    0.42857143
    0.04761905    0.47619048    0.47619048
    0.04761905    0.47619048    0.52380952
    0.04761905    0.47619048    0.57142857
    0.04761905    0.47619048    0.61904762
    0.04761905    0.47619048    0.66666667
    0.04761905    0.47619048    0.71428571
    0.04761905    0.47619048    0.76190476
    0.04761905    0.47619048    0.80952381
    0.04761905    0.47619048    0.85714286
    0.04761905    0.47619048    0.90476190
    0.04761905    0.47619048    0.95238095
    0.04761905    0.52380952    0.00000000
    0.04761905    0.52380952    0.04761905
    0.04761905    0.52380952    0.09523810
    0.04761905    0.52380952    0.14285714
    0.04761905    0.52380952    0.19047619
    0.04761905    0.52380952    0.23809524
    0.04761905    0.52380952    0.28571429
    0.04761905    0.52380952    0.33333333
    0.04761905    0.52380952    0.38095238
    0.04761905    0.52380952    0.42857143
    0.04761905    0.52380952    0.47619048
    0.04761905    0.52380952    0.52380952
    0.04761905    0.52380952    0.57142857
    0.04761905    0.52380952    0.61904762
    0.04761905    0.52380952    0.66666667
    0.04761905    0.52380952    0.71428571
    0.04761905    0.52380952    0.76190476
    0.04761905    0.52380952    0.80952381
    0.04761905    0.52380952    0.85714286
    0.04761905    0.52380952    0.90476190
    0.04761905    0.52380952    0.95238095
    0.04761905    0.57142857    0.00000000
    0.04761905    0.57142857    0.04761905
    0.04761905    0.57142857    0.09523810
    0.04761905    0.57142857    0.14285714
    0.04761905    0.57142857    0.19047619
    0.04761905    0.57142857    0.23809524
    0.04761905    0.57142857    0.28571429
    0.04761905    0.57142857    0.33333333
    0.04761905    0.57142857    0.38095238
    0.04761905    0.57142857    0.42857143
    0.04761905    0.57142857    0.47619048
    0.04761905    0.57142857    0.52380952
    0.04761905    0.57142857    0.57142857
    0.04761905    0.57142857    0.61904762
    0.04761905    0.57142857    0.66666667
    0.04761905    0.57142857    0.71428571
    0.04761905    0.57142857    0.76190476
    0.04761905    0.57142857    0.80952381
    0.04761905    0.57142857    0.85714286
    0.04761905    0.57142857    0.90476190
    0.04761905    0.57142857    0.95238095
    0.04761905    0.61904762    0.00000000
    0.04761905    0.61904762    0.04761905
    0.04761905    0.61904762    0.09523810
    0.04761905    0.61904762    0.14285714
    0.04761905    0.61904762    0.19047619
    0.04761905    0.61904762    0.23809524
    0.04761905    0.61904762    0.28571429
    0.04761905    0.61904762    0.33333333
    0.04761905    0.61904762    0.38095238
    0.04761905    0.61904762    0.42857143
    0.04761905    0.61904762    0.47619048
    0.04761905    0.61904762    0.52380952
    0.04761905    0.61904762    0.57142857
    0.04761905    0.61904762    0.61904762
    0.04761905    0.61904762    0.66666667
    0.04761905    0.61904762    0.71428571
    0.04761905    0.61904762    0.76190476
    0.04761905    0.61904762    0.80952381
    0.04761905    0.61904762    0.85714286
    0.04761905    0.61904762    0.90476190
    0.04761905    0.61904762    0.95238095
    0.04761905    0.66666667    0.00000000
    0.04761905    0.66666667    0.04761905
    0.04761905    0.66666667    0.09523810
    0.04761905    0.66666667    0.14285714
    0.04761905    0.66666667    0.19047619
    0.04761905    0.66666667    0.23809524
    0.04761905    0.66666667    0.28571429
    0.04761905    0.66666667    0.33333333
    0.04761905    0.66666667    0.38095238
    0.04761905    0.66666667    0.42857143
    0.04761905    0.66666667    0.47619048
    0.04761905    0.66666667    0.52380952
    0.04761905    0.66666667    0.57142857
    0.04761905    0.66666667    0.61904762
    0.04761905    0.66666667    0.66666667
    0.04761905    0.66666667    0.71428571
    0.04761905    0.66666667    0.76190476
    0.04761905    0.66666667    0.80952381
    0.04761905    0.66666667    0.85714286
    0.04761905    0.66666667    0.90476190
    0.04761905    0.66666667    0.95238095
    0.04761905    0.71428571    0.00000000
    0.04761905    0.71428571    0.04761905
    0.04761905    0.71428571    0.09523810
    0.04761905    0.71428571    0.14285714
    0.04761905    0.71428571    0.19047619
    0.04761905    0.71428571    0.23809524
    0.04761905    0.71428571    0.28571429
    0.04761905    0.71428571    0.33333333
    0.04761905    0.71428571    0.38095238
    0.04761905    0.71428571    0.42857143
    0.04761905    0.71428571    0.47619048
    0.04761905    0.71428571    0.52380952
    0.04761905    0.71428571    0.57142857
    0.04761905    0.71428571    0.61904762
    0.04761905    0.71428571    0.66666667
    0.04761905    0.71428571    0.71428571
    0.04761905    0.71428571    0.76190476
    0.04761905    0.71428571    0.80952381
    0.04761905    0.71428571    0.85714286
    0.04761905    0.71428571    0.90476190
    0.04761905    0.71428571    0.95238095
    0.04761905    0.76190476    0.00000000
    0.04761905    0.76190476    0.04761905
    0.04761905    0.76190476    0.09523810
    0.04761905    0.76190476    0.14285714
    0.04761905    0.76190476    0.19047619
    0.04761905    0.76190476    0.23809524
    0.04761905    0.76190476    0.28571429
    0.04761905    0.76190476    0.33333333
    0.04761905    0.76190476    0.38095238
    0.04761905    0.76190476    0.42857143
    0.04761905    0.76190476    0.47619048
    0.04761905    0.76190476    0.52380952
    0.04761905    0.76190476    0.57142857
    0.04761905    0.76190476    0.61904762
    0.04761905    0.76190476    0.66666667
    0.04761905    0.76190476    0.71428571
    0.04761905    0.76190476    0.76190476
    0.04761905    0.76190476    0.80952381
    0.04761905    0.76190476    0.85714286
    0.04761905    0.76190476    0.90476190
    0.04761905    0.76190476    0.95238095
    0.04761905    0.80952381    0.00000000
    0.04761905    0.80952381    0.04761905
    0.04761905    0.80952381    0.09523810
    0.04761905    0.80952381    0.14285714
    0.04761905    0.80952381    0.19047619
    0.04761905    0.80952381    0.23809524
    0.04761905    0.80952381    0.28571429
    0.04761905    0.80952381    0.33333333
    0.04761905    0.80952381    0.38095238
    0.04761905    0.80952381    0.42857143
    0.04761905    0.80952381    0.47619048
    0.04761905    0.80952381    0.52380952
    0.04761905    0.80952381    0.57142857
    0.04761905    0.80952381    0.61904762
    0.04761905    0.80952381    0.66666667
    0.04761905    0.80952381    0.71428571
    0.04761905    0.80952381    0.76190476
    0.04761905    0.80952381    0.80952381
    0.04761905    0.80952381    0.85714286
    0.04761905    0.80952381    0.90476190
    0.04761905    0.80952381    0.95238095
    0.04761905    0.85714286    0.00000000
    0.04761905    0.85714286    0.04761905
    0.04761905    0.85714286    0.09523810
    0.04761905    0.85714286    0.14285714
    0.04761905    0.85714286    0.19047619
    0.04761905    0.85714286    0.23809524
    0.04761905    0.85714286    0.28571429
    0.04761905    0.85714286    0.33333333
    0.04761905    0.85714286    0.38095238
    0.04761905    0.85714286    0.42857143
    0.04761905    0.85714286    0.47619048
    0.04761905    0.85714286    0.52380952
    0.04761905    0.85714286    0.57142857
    0.04761905    0.85714286    0.61904762
    0.04761905    0.85714286    0.66666667
    0.04761905    0.85714286    0.71428571
    0.04761905    0.85714286    0.76190476
    0.04761905    0.85714286    0.80952381
    0.04761905    0.85714286    0.85714286
    0.04761905    0.85714286    0.90476190
    0.04761905    0.85714286    0.95238095
    0.04761905    0.90476190    0.00000000
    0.04761905    0.90476190    0.04761905
    0.04761905    0.90476190    0.09523810
    0.04761905    0.90476190    0.14285714
    0.04761905    0.90476190    0.19047619
    0.04761905    0.90476190    0.23809524
    0.04761905    0.90476190    0.28571429
    0.04761905    0.90476190    0.33333333
    0.04761905    0.90476190    0.38095238
    0.04761905    0.90476190    0.42857143
    0.04761905    0.90476190    0.47619048
    0.04761905    0.90476190    0.52380952
    0.04761905    0.90476190    0.57142857
    0.04761905    0.90476190    0.61904762
    0.04761905    0.90476190    0.66666667
    0.04761905    0.90476190    0.71428571
    0.04761905    0.90476190    0.76190476
    0.04761905    0.90476190    0.80952381
    0.04761905    0.90476190    0.85714286
    0.04761905    0.90476190    0.90476190
    0.04761905    0.90476190    0.95238095
    0.04761905    0.95238095    0.00000000
    0.04761905    0.95238095    0.04761905
    0.04761905    0.95238095    0.09523810
    0.04761905    0.95238095    0.14285714
    0.04761905    0.95238095    0.19047619
    0.04761905    0.95238095    0.23809524
    0.04761905    0.95238095    0.28571429
    0.04761905    0.95238095    0.33333333
    0.04761905    0.95238095    0.38095238
    0.04761905    0.95238095    0.42857143
    0.04761905    0.95238095    0.47619048
    0.04761905    0.95238095    0.52380952
    0.04761905    0.95238095    0.57142857
    0.04761905    0.95238095    0.61904762
    0.04761905    0.95238095    0.66666667
    0.04761905    0.95238095    0.71428571
    0.04761905    0.95238095    0.76190476
    0.04761905    0.95238095    0.80952381
    0.04761905    0.95238095    0.85714286
    0.04761905    0.95238095    0.90476190
    0.04761905    0.95238095    0.95238095
    0.09523810    0.00000000    0.00000000
    0.09523810    0.00000000    0.04761905
    0.09523810    0.00000000    0.09523810
    0.09523810    0.00000000    0.14285714
    0.09523810    0.00000000    0.19047619
    0.09523810    0.00000000    0.23809524
    0.09523810    0.00000000    0.28571429
    0.09523810    0.00000000    0.33333333
    0.09523810    0.00000000    0.38095238
    0.09523810    0.00000000    0.42857143
    0.09523810    0.00000000    0.47619048
    0.09523810    0.00000000    0.52380952
    0.09523810    0.00000000    0.57142857
    0.09523810    0.00000000    0.61904762
    0.09523810    0.00000000    0.66666667
    0.09523810    0.00000000    0.71428571
    0.09523810    0.00000000    0.76190476
    0.09523810    0.00000000    0.80952381
    0.09523810    0.00000000    0.85714286
    0.09523810    0.00000000    0.90476190
    0.09523810    0.00000000    0.95238095
    0.09523810    0.04761905    0.00000000
    0.09523810    0.04761905    0.04761905
    0.09523810    0.04761905    0.09523810
    0.09523810    0.04761905    0.14285714
    0.09523810    0.04761905    0.19047619
    0.09523810    0.04761905    0.23809524
    0.09523810    0.04761905    0.28571429
    0.09523810    0.04761905    0.33333333
    0.09523810    0.04761905    0.38095238
    0.09523810    0.04761905    0.42857143
    0.09523810    0.04761905    0.47619048
    0.09523810    0.04761905    0.52380952
    0.09523810    0.04761905    0.57142857
    0.09523810    0.04761905    0.61904762
    0.09523810    0.04761905    0.66666667
    0.09523810    0.04761905    0.71428571
    0.09523810    0.04761905    0.76190476
    0.09523810    0.04761905    0.80952381
    0.09523810    0.04761905    0.85714286
    0.09523810    0.04761905    0.90476190
    0.09523810    0.04761905    0.95238095
    0.09523810    0.09523810    0.00000000
    0.09523810    0.09523810    0.04761905
    0.09523810    0.09523810    0.09523810
    0.09523810    0.09523810    0.14285714
    0.09523810    0.09523810    0.19047619
    0.09523810    0.09523810    0.23809524
    0.09523810    0.09523810    0.28571429
    0.09523810    0.09523810    0.33333333
    0.09523810    0.09523810    0.38095238
    0.09523810    0.09523810    0.42857143
    0.09523810    0.09523810    0.47619048
    0.09523810    0.09523810    0.52380952
    0.09523810    0.09523810    0.57142857
    0.09523810    0.09523810    0.61904762
    0.09523810    0.09523810    0.66666667
    0.09523810    0.09523810    0.71428571
    0.09523810    0.09523810    0.76190476
    0.09523810    0.09523810    0.80952381
    0.09523810    0.09523810    0.85714286
    0.09523810    0.09523810    0.90476190
    0.09523810    0.09523810    0.95238095
    0.09523810    0.14285714    0.00000000
    0.09523810    0.14285714    0.04761905
    0.09523810    0.14285714    0.09523810
    0.09523810    0.14285714    0.14285714
    0.09523810    0.14285714    0.19047619
    0.09523810    0.14285714    0.23809524
    0.09523810    0.14285714    0.28571429
    0.09523810    0.14285714    0.33333333
    0.09523810    0.14285714    0.38095238
    0.09523810    0.14285714    0.42857143
    0.09523810    0.14285714    0.47619048
    0.09523810    0.14285714    0.52380952
    0.09523810    0.14285714    0.57142857
    0.09523810    0.14285714    0.61904762
    0.09523810    0.14285714    0.66666667
    0.09523810    0.14285714    0.71428571
    0.09523810    0.14285714    0.76190476
    0.09523810    0.14285714    0.80952381
    0.09523810    0.14285714    0.85714286
    0.09523810    0.14285714    0.90476190
    0.09523810    0.14285714    0.95238095
    0.09523810    0.19047619    0.00000000
    0.09523810    0.19047619    0.04761905
    0.09523810    0.19047619    0.09523810
    0.09523810    0.19047619    0.14285714
    0.09523810    0.19047619    0.19047619
    0.09523810    0.19047619    0.23809524
    0.09523810    0.19047619    0.28571429
    0.09523810    0.19047619    0.33333333
    0.09523810    0.19047619    0.38095238
    0.09523810    0.19047619    0.42857143
    0.09523810    0.19047619    0.47619048
    0.09523810    0.19047619    0.52380952
    0.09523810    0.19047619    0.57142857
    0.09523810    0.19047619    0.61904762
    0.09523810    0.19047619    0.66666667
    0.09523810    0.19047619    0.71428571
    0.09523810    0.19047619    0.76190476
    0.09523810    0.19047619    0.80952381
    0.09523810    0.19047619    0.85714286
    0.09523810    0.19047619    0.90476190
    0.09523810    0.19047619    0.95238095
    0.09523810    0.23809524    0.00000000
    0.09523810    0.23809524    0.04761905
    0.09523810    0.23809524    0.09523810
    0.09523810    0.23809524    0.14285714
    0.09523810    0.23809524    0.19047619
    0.09523810    0.23809524    0.23809524
    0.09523810    0.23809524    0.28571429
    0.09523810    0.23809524    0.33333333
    0.09523810    0.23809524    0.38095238
    0.09523810    0.23809524    0.42857143
    0.09523810    0.23809524    0.47619048
    0.09523810    0.23809524    0.52380952
    0.09523810    0.23809524    0.57142857
    0.09523810    0.23809524    0.61904762
    0.09523810    0.23809524    0.66666667
    0.09523810    0.23809524    0.71428571
    0.09523810    0.23809524    0.76190476
    0.09523810    0.23809524    0.80952381
    0.09523810    0.23809524    0.85714286
    0.09523810    0.23809524    0.90476190
    0.09523810    0.23809524    0.95238095
    0.09523810    0.28571429    0.00000000
    0.09523810    0.28571429    0.04761905
    0.09523810    0.28571429    0.09523810
    0.09523810    0.28571429    0.14285714
    0.09523810    0.28571429    0.19047619
    0.09523810    0.28571429    0.23809524
    0.09523810    0.28571429    0.28571429
    0.09523810    0.28571429    0.33333333
    0.09523810    0.28571429    0.38095238
    0.09523810    0.28571429    0.42857143
    0.09523810    0.28571429    0.47619048
    0.09523810    0.28571429    0.52380952
    0.09523810    0.28571429    0.57142857
    0.09523810    0.28571429    0.61904762
    0.09523810    0.28571429    0.66666667
    0.09523810    0.28571429    0.71428571
    0.09523810    0.28571429    0.76190476
    0.09523810    0.28571429    0.80952381
    0.09523810    0.28571429    0.85714286
    0.09523810    0.28571429    0.90476190
    0.09523810    0.28571429    0.95238095
    0.09523810    0.33333333    0.00000000
    0.09523810    0.33333333    0.04761905
    0.09523810    0.33333333    0.09523810
    0.09523810    0.33333333    0.14285714
    0.09523810    0.33333333    0.19047619
    0.09523810    0.33333333    0.23809524
    0.09523810    0.33333333    0.28571429
    0.09523810    0.33333333    0.33333333
    0.09523810    0.33333333    0.38095238
    0.09523810    0.33333333    0.42857143
    0.09523810    0.33333333    0.47619048
    0.09523810    0.33333333    0.52380952
    0.09523810    0.33333333    0.57142857
    0.09523810    0.33333333    0.61904762
    0.09523810    0.33333333    0.66666667
    0.09523810    0.33333333    0.71428571
    0.09523810    0.33333333    0.76190476
    0.09523810    0.33333333    0.80952381
    0.09523810    0.33333333    0.85714286
    0.09523810    0.33333333    0.90476190
    0.09523810    0.33333333    0.95238095
    0.09523810    0.38095238    0.00000000
    0.09523810    0.38095238    0.04761905
    0.09523810    0.38095238    0.09523810
    0.09523810    0.38095238    0.14285714
    0.09523810    0.38095238    0.19047619
    0.09523810    0.38095238    0.23809524
    0.09523810    0.38095238    0.28571429
    0.09523810    0.38095238    0.33333333
    0.09523810    0.38095238    0.38095238
    0.09523810    0.38095238    0.42857143
    0.09523810    0.38095238    0.47619048
    0.09523810    0.38095238    0.52380952
    0.09523810    0.38095238    0.57142857
    0.09523810    0.38095238    0.61904762
    0.09523810    0.38095238    0.66666667
    0.09523810    0.38095238    0.71428571
    0.09523810    0.38095238    0.76190476
    0.09523810    0.38095238    0.80952381
    0.09523810    0.38095238    0.85714286
    0.09523810    0.38095238    0.90476190
    0.09523810    0.38095238    0.95238095
    0.09523810    0.42857143    0.00000000
    0.09523810    0.42857143    0.04761905
    0.09523810    0.42857143    0.09523810
    0.09523810    0.42857143    0.14285714
    0.09523810    0.42857143    0.19047619
    0.09523810    0.42857143    0.23809524
    0.09523810    0.42857143    0.28571429
    0.09523810    0.42857143    0.33333333
    0.09523810    0.42857143    0.38095238
    0.09523810    0.42857143    0.42857143
    0.09523810    0.42857143    0.47619048
    0.09523810    0.42857143    0.52380952
    0.09523810    0.42857143    0.57142857
    0.09523810    0.42857143    0.61904762
    0.09523810    0.42857143    0.66666667
    0.09523810    0.42857143    0.71428571
    0.09523810    0.42857143    0.76190476
    0.09523810    0.42857143    0.80952381
    0.09523810    0.42857143    0.85714286
    0.09523810    0.42857143    0.90476190
    0.09523810    0.42857143    0.95238095
    0.09523810    0.47619048    0.00000000
    0.09523810    0.47619048    0.04761905
    0.09523810    0.47619048    0.09523810
    0.09523810    0.47619048    0.14285714
    0.09523810    0.47619048    0.19047619
    0.09523810    0.47619048    0.23809524
    0.09523810    0.47619048    0.28571429
    0.09523810    0.47619048    0.33333333
    0.09523810    0.47619048    0.38095238
    0.09523810    0.47619048    0.42857143
    0.09523810    0.47619048    0.47619048
    0.09523810    0.47619048    0.52380952
    0.09523810    0.47619048    0.57142857
    0.09523810    0.47619048    0.61904762
    0.09523810    0.47619048    0.66666667
    0.09523810    0.47619048    0.71428571
    0.09523810    0.47619048    0.76190476
    0.09523810    0.47619048    0.80952381
    0.09523810    0.47619048    0.85714286
    0.09523810    0.47619048    0.90476190
    0.09523810    0.47619048    0.95238095
    0.09523810    0.52380952    0.00000000
    0.09523810    0.52380952    0.04761905
    0.09523810    0.52380952    0.09523810
    0.09523810    0.52380952    0.14285714
    0.09523810    0.52380952    0.19047619
    0.09523810    0.52380952    0.23809524
    0.09523810    0.52380952    0.28571429
    0.09523810    0.52380952    0.33333333
    0.09523810    0.52380952    0.38095238
    0.09523810    0.52380952    0.42857143
    0.09523810    0.52380952    0.47619048
    0.09523810    0.52380952    0.52380952
    0.09523810    0.52380952    0.57142857
    0.09523810    0.52380952    0.61904762
    0.09523810    0.52380952    0.66666667
    0.09523810    0.52380952    0.71428571
    0.09523810    0.52380952    0.76190476
    0.09523810    0.52380952    0.80952381
    0.09523810    0.52380952    0.85714286
    0.09523810    0.52380952    0.90476190
    0.09523810    0.52380952    0.95238095
    0.09523810    0.57142857    0.00000000
    0.09523810    0.57142857    0.04761905
    0.09523810    0.57142857    0.09523810
    0.09523810    0.57142857    0.14285714
    0.09523810    0.57142857    0.19047619
    0.09523810    0.57142857    0.23809524
    0.09523810    0.57142857    0.28571429
    0.09523810    0.57142857    0.33333333
    0.09523810    0.57142857    0.38095238
    0.09523810    0.57142857    0.42857143
    0.09523810    0.57142857    0.47619048
    0.09523810    0.57142857    0.52380952
    0.09523810    0.57142857    0.57142857
    0.09523810    0.57142857    0.61904762
    0.09523810    0.57142857    0.66666667
    0.09523810    0.57142857    0.71428571
    0.09523810    0.57142857    0.76190476
    0.09523810    0.57142857    0.80952381
    0.09523810    0.57142857    0.85714286
    0.09523810    0.57142857    0.90476190
    0.09523810    0.57142857    0.95238095
    0.09523810    0.61904762    0.00000000
    0.09523810    0.61904762    0.04761905
    0.09523810    0.61904762    0.09523810
    0.09523810    0.61904762    0.14285714
    0.09523810    0.61904762    0.19047619
    0.09523810    0.61904762    0.23809524
    0.09523810    0.61904762    0.28571429
    0.09523810    0.61904762    0.33333333
    0.09523810    0.61904762    0.38095238
    0.09523810    0.61904762    0.42857143
    0.09523810    0.61904762    0.47619048
    0.09523810    0.61904762    0.52380952
    0.09523810    0.61904762    0.57142857
    0.09523810    0.61904762    0.61904762
    0.09523810    0.61904762    0.66666667
    0.09523810    0.61904762    0.71428571
    0.09523810    0.61904762    0.76190476
    0.09523810    0.61904762    0.80952381
    0.09523810    0.61904762    0.85714286
    0.09523810    0.61904762    0.90476190
    0.09523810    0.61904762    0.95238095
    0.09523810    0.66666667    0.00000000
    0.09523810    0.66666667    0.04761905
    0.09523810    0.66666667    0.09523810
    0.09523810    0.66666667    0.14285714
    0.09523810    0.66666667    0.19047619
    0.09523810    0.66666667    0.23809524
    0.09523810    0.66666667    0.28571429
    0.09523810    0.66666667    0.33333333
    0.09523810    0.66666667    0.38095238
    0.09523810    0.66666667    0.42857143
    0.09523810    0.66666667    0.47619048
    0.09523810    0.66666667    0.52380952
    0.09523810    0.66666667    0.57142857
    0.09523810    0.66666667    0.61904762
    0.09523810    0.66666667    0.66666667
    0.09523810    0.66666667    0.71428571
    0.09523810    0.66666667    0.76190476
    0.09523810    0.66666667    0.80952381
    0.09523810    0.66666667    0.85714286
    0.09523810    0.66666667    0.90476190
    0.09523810    0.66666667    0.95238095
    0.09523810    0.71428571    0.00000000
    0.09523810    0.71428571    0.04761905
    0.09523810    0.71428571    0.09523810
    0.09523810    0.71428571    0.14285714
    0.09523810    0.71428571    0.19047619
    0.09523810    0.71428571    0.23809524
    0.09523810    0.71428571    0.28571429
    0.09523810    0.71428571    0.33333333
    0.09523810    0.71428571    0.38095238
    0.09523810    0.71428571    0.42857143
    0.09523810    0.71428571    0.47619048
    0.09523810    0.71428571    0.52380952
    0.09523810    0.71428571    0.57142857
    0.09523810    0.71428571    0.61904762
    0.09523810    0.71428571    0.66666667
    0.09523810    0.71428571    0.71428571
    0.09523810    0.71428571    0.76190476
    0.09523810    0.71428571    0.80952381
    0.09523810    0.71428571    0.85714286
    0.09523810    0.71428571    0.90476190
    0.09523810    0.71428571    0.95238095
    0.09523810    0.76190476    0.00000000
    0.09523810    0.76190476    0.04761905
    0.09523810    0.76190476    0.09523810
    0.09523810    0.76190476    0.14285714
    0.09523810    0.76190476    0.19047619
    0.09523810    0.76190476    0.23809524
    0.09523810    0.76190476    0.28571429
    0.09523810    0.76190476    0.33333333
    0.09523810    0.76190476    0.38095238
    0.09523810    0.76190476    0.42857143
    0.09523810    0.76190476    0.47619048
    0.09523810    0.76190476    0.52380952
    0.09523810    0.76190476    0.57142857
    0.09523810    0.76190476    0.61904762
    0.09523810    0.76190476    0.66666667
    0.09523810    0.76190476    0.71428571
    0.09523810    0.76190476    0.76190476
    0.09523810    0.76190476    0.80952381
    0.09523810    0.76190476    0.85714286
    0.09523810    0.76190476    0.90476190
    0.09523810    0.76190476    0.95238095
    0.09523810    0.80952381    0.00000000
    0.09523810    0.80952381    0.04761905
    0.09523810    0.80952381    0.09523810
    0.09523810    0.80952381    0.14285714
    0.09523810    0.80952381    0.19047619
    0.09523810    0.80952381    0.23809524
    0.09523810    0.80952381    0.28571429
    0.09523810    0.80952381    0.33333333
    0.09523810    0.80952381    0.38095238
    0.09523810    0.80952381    0.42857143
    0.09523810    0.80952381    0.47619048
    0.09523810    0.80952381    0.52380952
    0.09523810    0.80952381    0.57142857
    0.09523810    0.80952381    0.61904762
    0.09523810    0.80952381    0.66666667
    0.09523810    0.80952381    0.71428571
    0.09523810    0.80952381    0.76190476
    0.09523810    0.80952381    0.80952381
    0.09523810    0.80952381    0.85714286
    0.09523810    0.80952381    0.90476190
    0.09523810    0.80952381    0.95238095
    0.09523810    0.85714286    0.00000000
    0.09523810    0.85714286    0.04761905
    0.09523810    0.85714286    0.09523810
    0.09523810    0.85714286    0.14285714
    0.09523810    0.85714286    0.19047619
    0.09523810    0.85714286    0.23809524
    0.09523810    0.85714286    0.28571429
    0.09523810    0.85714286    0.33333333
    0.09523810    0.85714286    0.38095238
    0.09523810    0.85714286    0.42857143
    0.09523810    0.85714286    0.47619048
    0.09523810    0.85714286    0.52380952
    0.09523810    0.85714286    0.57142857
    0.09523810    0.85714286    0.61904762
    0.09523810    0.85714286    0.66666667
    0.09523810    0.85714286    0.71428571
    0.09523810    0.85714286    0.76190476
    0.09523810    0.85714286    0.80952381
    0.09523810    0.85714286    0.85714286
    0.09523810    0.85714286    0.90476190
    0.09523810    0.85714286    0.95238095
    0.09523810    0.90476190    0.00000000
    0.09523810    0.90476190    0.04761905
    0.09523810    0.90476190    0.09523810
    0.09523810    0.90476190    0.14285714
    0.09523810    0.90476190    0.19047619
    0.09523810    0.90476190    0.23809524
    0.09523810    0.90476190    0.28571429
    0.09523810    0.90476190    0.33333333
    0.09523810    0.90476190    0.38095238
    0.09523810    0.90476190    0.42857143
    0.09523810    0.90476190    0.47619048
    0.09523810    0.90476190    0.52380952
    0.09523810    0.90476190    0.57142857
    0.09523810    0.90476190    0.61904762
    0.09523810    0.90476190    0.66666667
    0.09523810    0.90476190    0.71428571
    0.09523810    0.90476190    0.76190476
    0.09523810    0.90476190    0.80952381
    0.09523810    0.90476190    0.85714286
    0.09523810    0.90476190    0.90476190
    0.09523810    0.90476190    0.95238095
    0.09523810    0.95238095    0.00000000
    0.09523810    0.95238095    0.04761905
    0.09523810    0.95238095    0.09523810
    0.09523810    0.95238095    0.14285714
    0.09523810    0.95238095    0.19047619
    0.09523810    0.95238095    0.23809524
    0.09523810    0.95238095    0.28571429
    0.09523810    0.95238095    0.33333333
    0.09523810    0.95238095    0.38095238
    0.09523810    0.95238095    0.42857143
    0.09523810    0.95238095    0.47619048
    0.09523810    0.95238095    0.52380952
    0.09523810    0.95238095    0.57142857
    0.09523810    0.95238095    0.61904762
    0.09523810    0.95238095    0.66666667
    0.09523810    0.95238095    0.71428571
    0.09523810    0.95238095    0.76190476
    0.09523810    0.95238095    0.80952381
    0.09523810    0.95238095    0.85714286
    0.09523810    0.95238095    0.90476190
    0.09523810    0.95238095    0.95238095
    0.14285714    0.00000000    0.00000000
    0.14285714    0.00000000    0.04761905
    0.14285714    0.00000000    0.09523810
    0.14285714    0.00000000    0.14285714
    0.14285714    0.00000000    0.19047619
    0.14285714    0.00000000    0.23809524
    0.14285714    0.00000000    0.28571429
    0.14285714    0.00000000    0.33333333
    0.14285714    0.00000000    0.38095238
    0.14285714    0.00000000    0.42857143
    0.14285714    0.00000000    0.47619048
    0.14285714    0.00000000    0.52380952
    0.14285714    0.00000000    0.57142857
    0.14285714    0.00000000    0.61904762
    0.14285714    0.00000000    0.66666667
    0.14285714    0.00000000    0.71428571
    0.14285714    0.00000000    0.76190476
    0.14285714    0.00000000    0.80952381
    0.14285714    0.00000000    0.85714286
    0.14285714    0.00000000    0.90476190
    0.14285714    0.00000000    0.95238095
    0.14285714    0.04761905    0.00000000
    0.14285714    0.04761905    0.04761905
    0.14285714    0.04761905    0.09523810
    0.14285714    0.04761905    0.14285714
    0.14285714    0.04761905    0.19047619
    0.14285714    0.04761905    0.23809524
    0.14285714    0.04761905    0.28571429
    0.14285714    0.04761905    0.33333333
    0.14285714    0.04761905    0.38095238
    0.14285714    0.04761905    0.42857143
    0.14285714    0.04761905    0.47619048
    0.14285714    0.04761905    0.52380952
    0.14285714    0.04761905    0.57142857
    0.14285714    0.04761905    0.61904762
    0.14285714    0.04761905    0.66666667
    0.14285714    0.04761905    0.71428571
    0.14285714    0.04761905    0.76190476
    0.14285714    0.04761905    0.80952381
    0.14285714    0.04761905    0.85714286
    0.14285714    0.04761905    0.90476190
    0.14285714    0.04761905    0.95238095
    0.14285714    0.09523810    0.00000000
    0.14285714    0.09523810    0.04761905
    0.14285714    0.09523810    0.09523810
    0.14285714    0.09523810    0.14285714
    0.14285714    0.09523810    0.19047619
    0.14285714    0.09523810    0.23809524
    0.14285714    0.09523810    0.28571429
    0.14285714    0.09523810    0.33333333
    0.14285714    0.09523810    0.38095238
    0.14285714    0.09523810    0.42857143
    0.14285714    0.09523810    0.47619048
    0.14285714    0.09523810    0.52380952
    0.14285714    0.09523810    0.57142857
    0.14285714    0.09523810    0.61904762
    0.14285714    0.09523810    0.66666667
    0.14285714    0.09523810    0.71428571
    0.14285714    0.09523810    0.76190476
    0.14285714    0.09523810    0.80952381
    0.14285714    0.09523810    0.85714286
    0.14285714    0.09523810    0.90476190
    0.14285714    0.09523810    0.95238095
    0.14285714    0.14285714    0.00000000
    0.14285714    0.14285714    0.04761905
    0.14285714    0.14285714    0.09523810
    0.14285714    0.14285714    0.14285714
    0.14285714    0.14285714    0.19047619
    0.14285714    0.14285714    0.23809524
    0.14285714    0.14285714    0.28571429
    0.14285714    0.14285714    0.33333333
    0.14285714    0.14285714    0.38095238
    0.14285714    0.14285714    0.42857143
    0.14285714    0.14285714    0.47619048
    0.14285714    0.14285714    0.52380952
    0.14285714    0.14285714    0.57142857
    0.14285714    0.14285714    0.61904762
    0.14285714    0.14285714    0.66666667
    0.14285714    0.14285714    0.71428571
    0.14285714    0.14285714    0.76190476
    0.14285714    0.14285714    0.80952381
    0.14285714    0.14285714    0.85714286
    0.14285714    0.14285714    0.90476190
    0.14285714    0.14285714    0.95238095
    0.14285714    0.19047619    0.00000000
    0.14285714    0.19047619    0.04761905
    0.14285714    0.19047619    0.09523810
    0.14285714    0.19047619    0.14285714
    0.14285714    0.19047619    0.19047619
    0.14285714    0.19047619    0.23809524
    0.14285714    0.19047619    0.28571429
    0.14285714    0.19047619    0.33333333
    0.14285714    0.19047619    0.38095238
    0.14285714    0.19047619    0.42857143
    0.14285714    0.19047619    0.47619048
    0.14285714    0.19047619    0.52380952
    0.14285714    0.19047619    0.57142857
    0.14285714    0.19047619    0.61904762
    0.14285714    0.19047619    0.66666667
    0.14285714    0.19047619    0.71428571
    0.14285714    0.19047619    0.76190476
    0.14285714    0.19047619    0.80952381
    0.14285714    0.19047619    0.85714286
    0.14285714    0.19047619    0.90476190
    0.14285714    0.19047619    0.95238095
    0.14285714    0.23809524    0.00000000
    0.14285714    0.23809524    0.04761905
    0.14285714    0.23809524    0.09523810
    0.14285714    0.23809524    0.14285714
    0.14285714    0.23809524    0.19047619
    0.14285714    0.23809524    0.23809524
    0.14285714    0.23809524    0.28571429
    0.14285714    0.23809524    0.33333333
    0.14285714    0.23809524    0.38095238
    0.14285714    0.23809524    0.42857143
    0.14285714    0.23809524    0.47619048
    0.14285714    0.23809524    0.52380952
    0.14285714    0.23809524    0.57142857
    0.14285714    0.23809524    0.61904762
    0.14285714    0.23809524    0.66666667
    0.14285714    0.23809524    0.71428571
    0.14285714    0.23809524    0.76190476
    0.14285714    0.23809524    0.80952381
    0.14285714    0.23809524    0.85714286
    0.14285714    0.23809524    0.90476190
    0.14285714    0.23809524    0.95238095
    0.14285714    0.28571429    0.00000000
    0.14285714    0.28571429    0.04761905
    0.14285714    0.28571429    0.09523810
    0.14285714    0.28571429    0.14285714
    0.14285714    0.28571429    0.19047619
    0.14285714    0.28571429    0.23809524
    0.14285714    0.28571429    0.28571429
    0.14285714    0.28571429    0.33333333
    0.14285714    0.28571429    0.38095238
    0.14285714    0.28571429    0.42857143
    0.14285714    0.28571429    0.47619048
    0.14285714    0.28571429    0.52380952
    0.14285714    0.28571429    0.57142857
    0.14285714    0.28571429    0.61904762
    0.14285714    0.28571429    0.66666667
    0.14285714    0.28571429    0.71428571
    0.14285714    0.28571429    0.76190476
    0.14285714    0.28571429    0.80952381
    0.14285714    0.28571429    0.85714286
    0.14285714    0.28571429    0.90476190
    0.14285714    0.28571429    0.95238095
    0.14285714    0.33333333    0.00000000
    0.14285714    0.33333333    0.04761905
    0.14285714    0.33333333    0.09523810
    0.14285714    0.33333333    0.14285714
    0.14285714    0.33333333    0.19047619
    0.14285714    0.33333333    0.23809524
    0.14285714    0.33333333    0.28571429
    0.14285714    0.33333333    0.33333333
    0.14285714    0.33333333    0.38095238
    0.14285714    0.33333333    0.42857143
    0.14285714    0.33333333    0.47619048
    0.14285714    0.33333333    0.52380952
    0.14285714    0.33333333    0.57142857
    0.14285714    0.33333333    0.61904762
    0.14285714    0.33333333    0.66666667
    0.14285714    0.33333333    0.71428571
    0.14285714    0.33333333    0.76190476
    0.14285714    0.33333333    0.80952381
    0.14285714    0.33333333    0.85714286
    0.14285714    0.33333333    0.90476190
    0.14285714    0.33333333    0.95238095
    0.14285714    0.38095238    0.00000000
    0.14285714    0.38095238    0.04761905
    0.14285714    0.38095238    0.09523810
    0.14285714    0.38095238    0.14285714
    0.14285714    0.38095238    0.19047619
    0.14285714    0.38095238    0.23809524
    0.14285714    0.38095238    0.28571429
    0.14285714    0.38095238    0.33333333
    0.14285714    0.38095238    0.38095238
    0.14285714    0.38095238    0.42857143
    0.14285714    0.38095238    0.47619048
    0.14285714    0.38095238    0.52380952
    0.14285714    0.38095238    0.57142857
    0.14285714    0.38095238    0.61904762
    0.14285714    0.38095238    0.66666667
    0.14285714    0.38095238    0.71428571
    0.14285714    0.38095238    0.76190476
    0.14285714    0.38095238    0.80952381
    0.14285714    0.38095238    0.85714286
    0.14285714    0.38095238    0.90476190
    0.14285714    0.38095238    0.95238095
    0.14285714    0.42857143    0.00000000
    0.14285714    0.42857143    0.04761905
    0.14285714    0.42857143    0.09523810
    0.14285714    0.42857143    0.14285714
    0.14285714    0.42857143    0.19047619
    0.14285714    0.42857143    0.23809524
    0.14285714    0.42857143    0.28571429
    0.14285714    0.42857143    0.33333333
    0.14285714    0.42857143    0.38095238
    0.14285714    0.42857143    0.42857143
    0.14285714    0.42857143    0.47619048
    0.14285714    0.42857143    0.52380952
    0.14285714    0.42857143    0.57142857
    0.14285714    0.42857143    0.61904762
    0.14285714    0.42857143    0.66666667
    0.14285714    0.42857143    0.71428571
    0.14285714    0.42857143    0.76190476
    0.14285714    0.42857143    0.80952381
    0.14285714    0.42857143    0.85714286
    0.14285714    0.42857143    0.90476190
    0.14285714    0.42857143    0.95238095
    0.14285714    0.47619048    0.00000000
    0.14285714    0.47619048    0.04761905
    0.14285714    0.47619048    0.09523810
    0.14285714    0.47619048    0.14285714
    0.14285714    0.47619048    0.19047619
    0.14285714    0.47619048    0.23809524
    0.14285714    0.47619048    0.28571429
    0.14285714    0.47619048    0.33333333
    0.14285714    0.47619048    0.38095238
    0.14285714    0.47619048    0.42857143
    0.14285714    0.47619048    0.47619048
    0.14285714    0.47619048    0.52380952
    0.14285714    0.47619048    0.57142857
    0.14285714    0.47619048    0.61904762
    0.14285714    0.47619048    0.66666667
    0.14285714    0.47619048    0.71428571
    0.14285714    0.47619048    0.76190476
    0.14285714    0.47619048    0.80952381
    0.14285714    0.47619048    0.85714286
    0.14285714    0.47619048    0.90476190
    0.14285714    0.47619048    0.95238095
    0.14285714    0.52380952    0.00000000
    0.14285714    0.52380952    0.04761905
    0.14285714    0.52380952    0.09523810
    0.14285714    0.52380952    0.14285714
    0.14285714    0.52380952    0.19047619
    0.14285714    0.52380952    0.23809524
    0.14285714    0.52380952    0.28571429
    0.14285714    0.52380952    0.33333333
    0.14285714    0.52380952    0.38095238
    0.14285714    0.52380952    0.42857143
    0.14285714    0.52380952    0.47619048
    0.14285714    0.52380952    0.52380952
    0.14285714    0.52380952    0.57142857
    0.14285714    0.52380952    0.61904762
    0.14285714    0.52380952    0.66666667
    0.14285714    0.52380952    0.71428571
    0.14285714    0.52380952    0.76190476
    0.14285714    0.52380952    0.80952381
    0.14285714    0.52380952    0.85714286
    0.14285714    0.52380952    0.90476190
    0.14285714    0.52380952    0.95238095
    0.14285714    0.57142857    0.00000000
    0.14285714    0.57142857    0.04761905
    0.14285714    0.57142857    0.09523810
    0.14285714    0.57142857    0.14285714
    0.14285714    0.57142857    0.19047619
    0.14285714    0.57142857    0.23809524
    0.14285714    0.57142857    0.28571429
    0.14285714    0.57142857    0.33333333
    0.14285714    0.57142857    0.38095238
    0.14285714    0.57142857    0.42857143
    0.14285714    0.57142857    0.47619048
    0.14285714    0.57142857    0.52380952
    0.14285714    0.57142857    0.57142857
    0.14285714    0.57142857    0.61904762
    0.14285714    0.57142857    0.66666667
    0.14285714    0.57142857    0.71428571
    0.14285714    0.57142857    0.76190476
    0.14285714    0.57142857    0.80952381
    0.14285714    0.57142857    0.85714286
    0.14285714    0.57142857    0.90476190
    0.14285714    0.57142857    0.95238095
    0.14285714    0.61904762    0.00000000
    0.14285714    0.61904762    0.04761905
    0.14285714    0.61904762    0.09523810
    0.14285714    0.61904762    0.14285714
    0.14285714    0.61904762    0.19047619
    0.14285714    0.61904762    0.23809524
    0.14285714    0.61904762    0.28571429
    0.14285714    0.61904762    0.33333333
    0.14285714    0.61904762    0.38095238
    0.14285714    0.61904762    0.42857143
    0.14285714    0.61904762    0.47619048
    0.14285714    0.61904762    0.52380952
    0.14285714    0.61904762    0.57142857
    0.14285714    0.61904762    0.61904762
    0.14285714    0.61904762    0.66666667
    0.14285714    0.61904762    0.71428571
    0.14285714    0.61904762    0.76190476
    0.14285714    0.61904762    0.80952381
    0.14285714    0.61904762    0.85714286
    0.14285714    0.61904762    0.90476190
    0.14285714    0.61904762    0.95238095
    0.14285714    0.66666667    0.00000000
    0.14285714    0.66666667    0.04761905
    0.14285714    0.66666667    0.09523810
    0.14285714    0.66666667    0.14285714
    0.14285714    0.66666667    0.19047619
    0.14285714    0.66666667    0.23809524
    0.14285714    0.66666667    0.28571429
    0.14285714    0.66666667    0.33333333
    0.14285714    0.66666667    0.38095238
    0.14285714    0.66666667    0.42857143
    0.14285714    0.66666667    0.47619048
    0.14285714    0.66666667    0.52380952
    0.14285714    0.66666667    0.57142857
    0.14285714    0.66666667    0.61904762
    0.14285714    0.66666667    0.66666667
    0.14285714    0.66666667    0.71428571
    0.14285714    0.66666667    0.76190476
    0.14285714    0.66666667    0.80952381
    0.14285714    0.66666667    0.85714286
    0.14285714    0.66666667    0.90476190
    0.14285714    0.66666667    0.95238095
    0.14285714    0.71428571    0.00000000
    0.14285714    0.71428571    0.04761905
    0.14285714    0.71428571    0.09523810
    0.14285714    0.71428571    0.14285714
    0.14285714    0.71428571    0.19047619
    0.14285714    0.71428571    0.23809524
    0.14285714    0.71428571    0.28571429
    0.14285714    0.71428571    0.33333333
    0.14285714    0.71428571    0.38095238
    0.14285714    0.71428571    0.42857143
    0.14285714    0.71428571    0.47619048
    0.14285714    0.71428571    0.52380952
    0.14285714    0.71428571    0.57142857
    0.14285714    0.71428571    0.61904762
    0.14285714    0.71428571    0.66666667
    0.14285714    0.71428571    0.71428571
    0.14285714    0.71428571    0.76190476
    0.14285714    0.71428571    0.80952381
    0.14285714    0.71428571    0.85714286
    0.14285714    0.71428571    0.90476190
    0.14285714    0.71428571    0.95238095
    0.14285714    0.76190476    0.00000000
    0.14285714    0.76190476    0.04761905
    0.14285714    0.76190476    0.09523810
    0.14285714    0.76190476    0.14285714
    0.14285714    0.76190476    0.19047619
    0.14285714    0.76190476    0.23809524
    0.14285714    0.76190476    0.28571429
    0.14285714    0.76190476    0.33333333
    0.14285714    0.76190476    0.38095238
    0.14285714    0.76190476    0.42857143
    0.14285714    0.76190476    0.47619048
    0.14285714    0.76190476    0.52380952
    0.14285714    0.76190476    0.57142857
    0.14285714    0.76190476    0.61904762
    0.14285714    0.76190476    0.66666667
    0.14285714    0.76190476    0.71428571
    0.14285714    0.76190476    0.76190476
    0.14285714    0.76190476    0.80952381
    0.14285714    0.76190476    0.85714286
    0.14285714    0.76190476    0.90476190
    0.14285714    0.76190476    0.95238095
    0.14285714    0.80952381    0.00000000
    0.14285714    0.80952381    0.04761905
    0.14285714    0.80952381    0.09523810
    0.14285714    0.80952381    0.14285714
    0.14285714    0.80952381    0.19047619
    0.14285714    0.80952381    0.23809524
    0.14285714    0.80952381    0.28571429
    0.14285714    0.80952381    0.33333333
    0.14285714    0.80952381    0.38095238
    0.14285714    0.80952381    0.42857143
    0.14285714    0.80952381    0.47619048
    0.14285714    0.80952381    0.52380952
    0.14285714    0.80952381    0.57142857
    0.14285714    0.80952381    0.61904762
    0.14285714    0.80952381    0.66666667
    0.14285714    0.80952381    0.71428571
    0.14285714    0.80952381    0.76190476
    0.14285714    0.80952381    0.80952381
    0.14285714    0.80952381    0.85714286
    0.14285714    0.80952381    0.90476190
    0.14285714    0.80952381    0.95238095
    0.14285714    0.85714286    0.00000000
    0.14285714    0.85714286    0.04761905
    0.14285714    0.85714286    0.09523810
    0.14285714    0.85714286    0.14285714
    0.14285714    0.85714286    0.19047619
    0.14285714    0.85714286    0.23809524
    0.14285714    0.85714286    0.28571429
    0.14285714    0.85714286    0.33333333
    0.14285714    0.85714286    0.38095238
    0.14285714    0.85714286    0.42857143
    0.14285714    0.85714286    0.47619048
    0.14285714    0.85714286    0.52380952
    0.14285714    0.85714286    0.57142857
    0.14285714    0.85714286    0.61904762
    0.14285714    0.85714286    0.66666667
    0.14285714    0.85714286    0.71428571
    0.14285714    0.85714286    0.76190476
    0.14285714    0.85714286    0.80952381
    0.14285714    0.85714286    0.85714286
    0.14285714    0.85714286    0.90476190
    0.14285714    0.85714286    0.95238095
    0.14285714    0.90476190    0.00000000
    0.14285714    0.90476190    0.04761905
    0.14285714    0.90476190    0.09523810
    0.14285714    0.90476190    0.14285714
    0.14285714    0.90476190    0.19047619
    0.14285714    0.90476190    0.23809524
    0.14285714    0.90476190    0.28571429
    0.14285714    0.90476190    0.33333333
    0.14285714    0.90476190    0.38095238
    0.14285714    0.90476190    0.42857143
    0.14285714    0.90476190    0.47619048
    0.14285714    0.90476190    0.52380952
    0.14285714    0.90476190    0.57142857
    0.14285714    0.90476190    0.61904762
    0.14285714    0.90476190    0.66666667
    0.14285714    0.90476190    0.71428571
    0.14285714    0.90476190    0.76190476
    0.14285714    0.90476190    0.80952381
    0.14285714    0.90476190    0.85714286
    0.14285714    0.90476190    0.90476190
    0.14285714    0.90476190    0.95238095
    0.14285714    0.95238095    0.00000000
    0.14285714    0.95238095    0.04761905
    0.14285714    0.95238095    0.09523810
    0.14285714    0.95238095    0.14285714
    0.14285714    0.95238095    0.19047619
    0.14285714    0.95238095    0.23809524
    0.14285714    0.95238095    0.28571429
    0.14285714    0.95238095    0.33333333
    0.14285714    0.95238095    0.38095238
    0.14285714    0.95238095    0.42857143
    0.14285714    0.95238095    0.47619048
    0.14285714    0.95238095    0.52380952
    0.14285714    0.95238095    0.57142857
    0.14285714    0.95238095    0.61904762
    0.14285714    0.95238095    0.66666667
    0.14285714    0.95238095    0.71428571
    0.14285714    0.95238095    0.76190476
    0.14285714    0.95238095    0.80952381
    0.14285714    0.95238095    0.85714286
    0.14285714    0.95238095    0.90476190
    0.14285714    0.95238095    0.95238095
    0.19047619    0.00000000    0.00000000
    0.19047619    0.00000000    0.04761905
    0.19047619    0.00000000    0.09523810
    0.19047619    0.00000000    0.14285714
    0.19047619    0.00000000    0.19047619
    0.19047619    0.00000000    0.23809524
    0.19047619    0.00000000    0.28571429
    0.19047619    0.00000000    0.33333333
    0.19047619    0.00000000    0.38095238
    0.19047619    0.00000000    0.42857143
    0.19047619    0.00000000    0.47619048
    0.19047619    0.00000000    0.52380952
    0.19047619    0.00000000    0.57142857
    0.19047619    0.00000000    0.61904762
    0.19047619    0.00000000    0.66666667
    0.19047619    0.00000000    0.71428571
    0.19047619    0.00000000    0.76190476
    0.19047619    0.00000000    0.80952381
    0.19047619    0.00000000    0.85714286
    0.19047619    0.00000000    0.90476190
    0.19047619    0.00000000    0.95238095
    0.19047619    0.04761905    0.00000000
    0.19047619    0.04761905    0.04761905
    0.19047619    0.04761905    0.09523810
    0.19047619    0.04761905    0.14285714
    0.19047619    0.04761905    0.19047619
    0.19047619    0.04761905    0.23809524
    0.19047619    0.04761905    0.28571429
    0.19047619    0.04761905    0.33333333
    0.19047619    0.04761905    0.38095238
    0.19047619    0.04761905    0.42857143
    0.19047619    0.04761905    0.47619048
    0.19047619    0.04761905    0.52380952
    0.19047619    0.04761905    0.57142857
    0.19047619    0.04761905    0.61904762
    0.19047619    0.04761905    0.66666667
    0.19047619    0.04761905    0.71428571
    0.19047619    0.04761905    0.76190476
    0.19047619    0.04761905    0.80952381
    0.19047619    0.04761905    0.85714286
    0.19047619    0.04761905    0.90476190
    0.19047619    0.04761905    0.95238095
    0.19047619    0.09523810    0.00000000
    0.19047619    0.09523810    0.04761905
    0.19047619    0.09523810    0.09523810
    0.19047619    0.09523810    0.14285714
    0.19047619    0.09523810    0.19047619
    0.19047619    0.09523810    0.23809524
    0.19047619    0.09523810    0.28571429
    0.19047619    0.09523810    0.33333333
    0.19047619    0.09523810    0.38095238
    0.19047619    0.09523810    0.42857143
    0.19047619    0.09523810    0.47619048
    0.19047619    0.09523810    0.52380952
    0.19047619    0.09523810    0.57142857
    0.19047619    0.09523810    0.61904762
    0.19047619    0.09523810    0.66666667
    0.19047619    0.09523810    0.71428571
    0.19047619    0.09523810    0.76190476
    0.19047619    0.09523810    0.80952381
    0.19047619    0.09523810    0.85714286
    0.19047619    0.09523810    0.90476190
    0.19047619    0.09523810    0.95238095
    0.19047619    0.14285714    0.00000000
    0.19047619    0.14285714    0.04761905
    0.19047619    0.14285714    0.09523810
    0.19047619    0.14285714    0.14285714
    0.19047619    0.14285714    0.19047619
    0.19047619    0.14285714    0.23809524
    0.19047619    0.14285714    0.28571429
    0.19047619    0.14285714    0.33333333
    0.19047619    0.14285714    0.38095238
    0.19047619    0.14285714    0.42857143
    0.19047619    0.14285714    0.47619048
    0.19047619    0.14285714    0.52380952
    0.19047619    0.14285714    0.57142857
    0.19047619    0.14285714    0.61904762
    0.19047619    0.14285714    0.66666667
    0.19047619    0.14285714    0.71428571
    0.19047619    0.14285714    0.76190476
    0.19047619    0.14285714    0.80952381
    0.19047619    0.14285714    0.85714286
    0.19047619    0.14285714    0.90476190
    0.19047619    0.14285714    0.95238095
    0.19047619    0.19047619    0.00000000
    0.19047619    0.19047619    0.04761905
    0.19047619    0.19047619    0.09523810
[...]
  9202  9223      0   0   0
  9202   361      1   0   0
  9202   381      1   0   0
  9202   382      1   0   0
  9203  8762      0   0   0
  9203  8763      0   0   0
  9203  8783      0   0   0
  9203  9182      0   0   0
  9203  9183      0   0   0
  9203  9202      0   0   0
  9203  9204      0   0   0
  9203  9223      0   0   0
  9203  9224      0   0   0
  9203   362      1   0   0
  9203   382      1   0   0
  9203   383      1   0   0
  9204  8763      0   0   0
  9204  8764      0   0   0
  9204  8784      0   0   0
  9204  9183      0   0   0
  9204  9184      0   0   0
  9204  9203      0   0   0
  9204  9205      0   0   0
  9204  9224      0   0   0
  9204  9225      0   0   0
  9204   363      1   0   0
  9204   383      1   0   0
  9204   384      1   0   0
  9205  8764      0   0   0
  9205  8765      0   0   0
  9205  8785      0   0   0
  9205  9184      0   0   0
  9205  9185      0   0   0
  9205  9204      0   0   0
  9205  9206      0   0   0
  9205  9225      0   0   0
  9205  9226      0   0   0
  9205   364      1   0   0
  9205   384      1   0   0
  9205   385      1   0   0
  9206  8765      0   0   0
  9206  8766      0   0   0
  9206  8786      0   0   0
  9206  9185      0   0   0
  9206  9186      0   0   0
  9206  9205      0   0   0
  9206  9207      0   0   0
  9206  9226      0   0   0
  9206  9227      0   0   0
  9206   365      1   0   0
  9206   385      1   0   0
  9206   386      1   0   0
  9207  8766      0   0   0
  9207  8767      0   0   0
  9207  8787      0   0   0
  9207  9186      0   0   0
  9207  9187      0   0   0
  9207  9206      0   0   0
  9207  9208      0   0   0
  9207  9227      0   0   0
  9207  9228      0   0   0
  9207   366      1   0   0
  9207   386      1   0   0
  9207   387      1   0   0
  9208  8767      0   0   0
  9208  8768      0   0   0
  9208  8788      0   0   0
  9208  9187      0   0   0
  9208  9188      0   0   0
  9208  9207      0   0   0
  9208  9209      0   0   0
  9208  9228      0   0   0
  9208  9229      0   0   0
  9208   367      1   0   0
  9208   387      1   0   0
  9208   388      1   0   0
  9209  8768      0   0   0
  9209  8769      0   0   0
  9209  8789      0   0   0
  9209  9188      0   0   0
  9209  9189      0   0   0
  9209  9208      0   0   0
  9209  9210      0   0   0
  9209  9229      0   0   0
  9209  9230      0   0   0
  9209   368      1   0   0
  9209   388      1   0   0
  9209   389      1   0   0
  9210  8769      0   0   0
  9210  8770      0   0   0
  9210  8790      0   0   0
  9210  9189      0   0   0
  9210  9190      0   0   0
  9210  9209      0   0   0
  9210  9211      0   0   0
  9210  9230      0   0   0
  9210  9231      0   0   0
  9210   369      1   0   0
  9210   389      1   0   0
  9210   390      1   0   0
  9211  8770      0   0   0
  9211  8771      0   0   0
  9211  8791      0   0   0
  9211  9190      0   0   0
  9211  9191      0   0   0
  9211  9210      0   0   0
  9211  9212      0   0   0
  9211  9231      0   0   0
  9211  9232      0   0   0
  9211   370      1   0   0
  9211   390      1   0   0
  9211   391      1   0   0
  9212  8771      0   0   0
  9212  8772      0   0   0
  9212  8792      0   0   0
  9212  9191      0   0   0
  9212  9192      0   0   0
  9212  9211      0   0   0
  9212  9213      0   0   0
  9212  9232      0   0   0
  9212  9233      0   0   0
  9212   371      1   0   0
  9212   391      1   0   0
  9212   392      1   0   0
  9213  8772      0   0   0
  9213  8773      0   0   0
  9213  8793      0   0   0
  9213  9192      0   0   0
  9213  9193      0   0   0
  9213  9212      0   0   0
  9213  9214      0   0   0
  9213  9233      0   0   0
  9213  9234      0   0   0
  9213   372      1   0   0
  9213   392      1   0   0
  9213   393      1   0   0
  9214  8773      0   0   0
  9214  8774      0   0   0
  9214  8794      0   0   0
  9214  9193      0   0   0
  9214  9194      0   0   0
  9214  9213      0   0   0
  9214  9215      0   0   0
  9214  9234      0   0   0
  9214  9235      0   0   0
  9214   373      1   0   0
  9214   393      1   0   0
  9214   394      1   0   0
  9215  8774      0   0   0
  9215  8775      0   0   0
  9215  8795      0   0   0
  9215  9194      0   0   0
  9215  9195      0   0   0
  9215  9214      0   0   0
  9215  9216      0   0   0
  9215  9235      0   0   0
  9215  9236      0   0   0
  9215   374      1   0   0
  9215   394      1   0   0
  9215   395      1   0   0
  9216  8775      0   0   0
  9216  8776      0   0   0
  9216  8796      0   0   0
  9216  9195      0   0   0
  9216  9196      0   0   0
  9216  9215      0   0   0
  9216  9217      0   0   0
  9216  9236      0   0   0
  9216  9237      0   0   0
  9216   375      1   0   0
  9216   395      1   0   0
  9216   396      1   0   0
  9217  8776      0   0   0
  9217  8777      0   0   0
  9217  8797      0   0   0
  9217  9196      0   0   0
  9217  9197      0   0   0
  9217  9216      0   0   0
  9217  9218      0   0   0
  9217  9237      0   0   0
  9217  9238      0   0   0
  9217   376      1   0   0
  9217   396      1   0   0
  9217   397      1   0   0
  9218  8777      0   0   0
  9218  8778      0   0   0
  9218  8798      0   0   0
  9218  9197      0   0   0
  9218  9198      0   0   0
  9218  9217      0   0   0
  9218  9219      0   0   0
  9218  9238      0   0   0
  9218  9239      0   0   0
  9218   377      1   0   0
  9218   397      1   0   0
  9218   398      1   0   0
  9219  8778      0   0   0
  9219  8799      0   0   0
  9219  9198      0   0   0
  9219  9218      0   0   0
  9219  9239      0   0   0
  9219  9240      0   0   0
  9219   378      1   0   0
  9219   398      1   0   0
  9219   399      1   0   0
  9219  8758      0   0   1
  9219  9178      0   0   1
  9219  9199      0   0   1
  9220  8779      0   0   0
  9220  8780      0   0   0
  9220  8800      0   0   0
  9220  9199      0   0   0
  9220  9200      0   0   0
  9220  9221      0   0   0
  9220  9241      0   0   0
  9220   379      1   0   0
  9220   400      1   0   0
  9220   420      1   0  -1
  9220  9240      0   0  -1
  9220  9261      0   0  -1
  9221  8780      0   0   0
  9221  8781      0   0   0
  9221  8801      0   0   0
  9221  9200      0   0   0
  9221  9201      0   0   0
  9221  9220      0   0   0
  9221  9222      0   0   0
  9221  9241      0   0   0
  9221  9242      0   0   0
  9221   380      1   0   0
  9221   400      1   0   0
  9221   401      1   0   0
  9222  8781      0   0   0
  9222  8782      0   0   0
  9222  8802      0   0   0
  9222  9201      0   0   0
  9222  9202      0   0   0
  9222  9221      0   0   0
  9222  9223      0   0   0
  9222  9242      0   0   0
  9222  9243      0   0   0
  9222   381      1   0   0
  9222   401      1   0   0
  9222   402      1   0   0
  9223  8782      0   0   0
  9223  8783      0   0   0
  9223  8803      0   0   0
  9223  9202      0   0   0
  9223  9203      0   0   0
  9223  9222      0   0   0
  9223  9224      0   0   0
  9223  9243      0   0   0
  9223  9244      0   0   0
  9223   382      1   0   0
  9223   402      1   0   0
  9223   403      1   0   0
  9224  8783      0   0   0
  9224  8784      0   0   0
  9224  8804      0   0   0
  9224  9203      0   0   0
  9224  9204      0   0   0
  9224  9223      0   0   0
  9224  9225      0   0   0
  9224  9244      0   0   0
  9224  9245      0   0   0
  9224   383      1   0   0
  9224   403      1   0   0
  9224   404      1   0   0
  9225  8784      0   0   0
  9225  8785      0   0   0
  9225  8805      0   0   0
  9225  9204      0   0   0
  9225  9205      0   0   0
  9225  9224      0   0   0
  9225  9226      0   0   0
  9225  9245      0   0   0
  9225  9246      0   0   0
  9225   384      1   0   0
  9225   404      1   0   0
  9225   405      1   0   0
  9226  8785      0   0   0
  9226  8786      0   0   0
  9226  8806      0   0   0
  9226  9205      0   0   0
  9226  9206      0   0   0
  9226  9225      0   0   0
  9226  9227      0   0   0
  9226  9246      0   0   0
  9226  9247      0   0   0
  9226   385      1   0   0
  9226   405      1   0   0
  9226   406      1   0   0
  9227  8786      0   0   0
  9227  8787      0   0   0
  9227  8807      0   0   0
  9227  9206      0   0   0
  9227  9207      0   0   0
  9227  9226      0   0   0
  9227  9228      0   0   0
  9227  9247      0   0   0
  9227  9248      0   0   0
  9227   386      1   0   0
  9227   406      1   0   0
  9227   407      1   0   0
  9228  8787      0   0   0
  9228  8788      0   0   0
  9228  8808      0   0   0
  9228  9207      0   0   0
  9228  9208      0   0   0
  9228  9227      0   0   0
  9228  9229      0   0   0
  9228  9248      0   0   0
  9228  9249      0   0   0
  9228   387      1   0   0
  9228   407      1   0   0
  9228   408      1   0   0
  9229  8788      0   0   0
  9229  8789      0   0   0
  9229  8809      0   0   0
  9229  9208      0   0   0
  9229  9209      0   0   0
  9229  9228      0   0   0
  9229  9230      0   0   0
  9229  9249      0   0   0
  9229  9250      0   0   0
  9229   388      1   0   0
  9229   408      1   0   0
  9229   409      1   0   0
  9230  8789      0   0   0
  9230  8790      0   0   0
  9230  8810      0   0   0
  9230  9209      0   0   0
  9230  9210      0   0   0
  9230  9229      0   0   0
  9230  9231      0   0   0
  9230  9250      0   0   0
  9230  9251      0   0   0
  9230   389      1   0   0
  9230   409      1   0   0
  9230   410      1   0   0
  9231  8790      0   0   0
  9231  8791      0   0   0
  9231  8811      0   0   0
  9231  9210      0   0   0
  9231  9211      0   0   0
  9231  9230      0   0   0
  9231  9232      0   0   0
  9231  9251      0   0   0
  9231  9252      0   0   0
  9231   390      1   0   0
  9231   410      1   0   0
  9231   411      1   0   0
  9232  8791      0   0   0
  9232  8792      0   0   0
  9232  8812      0   0   0
  9232  9211      0   0   0
  9232  9212      0   0   0
  9232  9231      0   0   0
  9232  9233      0   0   0
  9232  9252      0   0   0
  9232  9253      0   0   0
  9232   391      1   0   0
  9232   411      1   0   0
  9232   412      1   0   0
  9233  8792      0   0   0
  9233  8793      0   0   0
  9233  8813      0   0   0
  9233  9212      0   0   0
  9233  9213      0   0   0
  9233  9232      0   0   0
  9233  9234      0   0   0
  9233  9253      0   0   0
  9233  9254      0   0   0
  9233   392      1   0   0
  9233   412      1   0   0
  9233   413      1   0   0
  9234  8793      0   0   0
  9234  8794      0   0   0
  9234  8814      0   0   0
  9234  9213      0   0   0
  9234  9214      0   0   0
  9234  9233      0   0   0
  9234  9235      0   0   0
  9234  9254      0   0   0
  9234  9255      0   0   0
  9234   393      1   0   0
  9234   413      1   0   0
  9234   414      1   0   0
  9235  8794      0   0   0
  9235  8795      0   0   0
  9235  8815      0   0   0
  9235  9214      0   0   0
  9235  9215      0   0   0
  9235  9234      0   0   0
  9235  9236      0   0   0
  9235  9255      0   0   0
  9235  9256      0   0   0
  9235   394      1   0   0
  9235   414      1   0   0
  9235   415      1   0   0
  9236  8795      0   0   0
  9236  8796      0   0   0
  9236  8816      0   0   0
  9236  9215      0   0   0
  9236  9216      0   0   0
  9236  9235      0   0   0
  9236  9237      0   0   0
  9236  9256      0   0   0
  9236  9257      0   0   0
  9236   395      1   0   0
  9236   415      1   0   0
  9236   416      1   0   0
  9237  8796      0   0   0
  9237  8797      0   0   0
  9237  8817      0   0   0
  9237  9216      0   0   0
  9237  9217      0   0   0
  9237  9236      0   0   0
  9237  9238      0   0   0
  9237  9257      0   0   0
  9237  9258      0   0   0
  9237   396      1   0   0
  9237   416      1   0   0
  9237   417      1   0   0
  9238  8797      0   0   0
  9238  8798      0   0   0
  9238  8818      0   0   0
  9238  9217      0   0   0
  9238  9218      0   0   0
  9238  9237      0   0   0
  9238  9239      0   0   0
  9238  9258      0   0   0
  9238  9259      0   0   0
  9238   397      1   0   0
  9238   417      1   0   0
  9238   418      1   0   0
  9239  8798      0   0   0
  9239  8799      0   0   0
  9239  8819      0   0   0
  9239  9218      0   0   0
  9239  9219      0   0   0
  9239  9238      0   0   0
  9239  9240      0   0   0
  9239  9259      0   0   0
  9239  9260      0   0   0
  9239   398      1   0   0
  9239   418      1   0   0
  9239   419      1   0   0
  9240  8799      0   0   0
  9240  8820      0   0   0
  9240  9219      0   0   0
  9240  9239      0   0   0
  9240  9260      0   0   0
  9240  9261      0   0   0
  9240   399      1   0   0
  9240   419      1   0   0
  9240   420      1   0   0
  9240  8779      0   0   1
  9240  9199      0   0   1
  9240  9220      0   0   1
  9241  8800      0   0   0
  9241  8801      0   0   0
  9241  9220      0   0   0
  9241  9221      0   0   0
  9241  9242      0   0   0
  9241   400      1   0   0
  9241   421      1   0   0
  9241   441      1   0  -1
  9241  8380      0   1   0
  9241  8821      0   1   0
  9241  8841      0   1  -1
  9241  9261      0   0  -1
  9242  8801      0   0   0
  9242  8802      0   0   0
  9242  9221      0   0   0
  9242  9222      0   0   0
  9242  9241      0   0   0
  9242  9243      0   0   0
  9242   401      1   0   0
  9242   421      1   0   0
  9242   422      1   0   0
  9242  8381      0   1   0
  9242  8821      0   1   0
  9242  8822      0   1   0
  9243  8802      0   0   0
  9243  8803      0   0   0
  9243  9222      0   0   0
  9243  9223      0   0   0
  9243  9242      0   0   0
  9243  9244      0   0   0
  9243   402      1   0   0
  9243   422      1   0   0
  9243   423      1   0   0
  9243  8382      0   1   0
  9243  8822      0   1   0
  9243  8823      0   1   0
  9244  8803      0   0   0
  9244  8804      0   0   0
  9244  9223      0   0   0
  9244  9224      0   0   0
  9244  9243      0   0   0
  9244  9245      0   0   0
  9244   403      1   0   0
  9244   423      1   0   0
  9244   424      1   0   0
  9244  8383      0   1   0
  9244  8823      0   1   0
  9244  8824      0   1   0
  9245  8804      0   0   0
  9245  8805      0   0   0
  9245  9224      0   0   0
  9245  9225      0   0   0
  9245  9244      0   0   0
  9245  9246      0   0   0
  9245   404      1   0   0
  9245   424      1   0   0
  9245   425      1   0   0
  9245  8384      0   1   0
  9245  8824      0   1   0
  9245  8825      0   1   0
  9246  8805      0   0   0
  9246  8806      0   0   0
  9246  9225      0   0   0
  9246  9226      0   0   0
  9246  9245      0   0   0
  9246  9247      0   0   0
  9246   405      1   0   0
  9246   425      1   0   0
  9246   426      1   0   0
  9246  8385      0   1   0
  9246  8825      0   1   0
  9246  8826      0   1   0
  9247  8806      0   0   0
  9247  8807      0   0   0
  9247  9226      0   0   0
  9247  9227      0   0   0
  9247  9246      0   0   0
  9247  9248      0   0   0
  9247   406      1   0   0
  9247   426      1   0   0
  9247   427      1   0   0
  9247  8386      0   1   0
  9247  8826      0   1   0
  9247  8827      0   1   0
  9248  8807      0   0   0
  9248  8808      0   0   0
  9248  9227      0   0   0
  9248  9228      0   0   0
  9248  9247      0   0   0
  9248  9249      0   0   0
  9248   407      1   0   0
  9248   427      1   0   0
  9248   428      1   0   0
  9248  8387      0   1   0
  9248  8827      0   1   0
  9248  8828      0   1   0
  9249  8808      0   0   0
  9249  8809      0   0   0
  9249  9228      0   0   0
  9249  9229      0   0   0
  9249  9248      0   0   0
  9249  9250      0   0   0
  9249   408      1   0   0
  9249   428      1   0   0
  9249   429      1   0   0
  9249  8388      0   1   0
  9249  8828      0   1   0
  9249  8829      0   1   0
  9250  8809      0   0   0
  9250  8810      0   0   0
  9250  9229      0   0   0
  9250  9230      0   0   0
  9250  9249      0   0   0
  9250  9251      0   0   0
  9250   409      1   0   0
  9250   429      1   0   0
  9250   430      1   0   0
  9250  8389      0   1   0
  9250  8829      0   1   0
  9250  8830      0   1   0
  9251  8810      0   0   0
  9251  8811      0   0   0
  9251  9230      0   0   0
  9251  9231      0   0   0
  9251  9250      0   0   0
  9251  9252      0   0   0
  9251   410      1   0   0
  9251   430      1   0   0
  9251   431      1   0   0
  9251  8390      0   1   0
  9251  8830      0   1   0
  9251  8831      0   1   0
  9252  8811      0   0   0
  9252  8812      0   0   0
  9252  9231      0   0   0
  9252  9232      0   0   0
  9252  9251      0   0   0
  9252  9253      0   0   0
  9252   411      1   0   0
  9252   431      1   0   0
  9252   432      1   0   0
  9252  8391      0   1   0
  9252  8831      0   1   0
  9252  8832      0   1   0
  9253  8812      0   0   0
  9253  8813      0   0   0
  9253  9232      0   0   0
  9253  9233      0   0   0
  9253  9252      0   0   0
  9253  9254      0   0   0
  9253   412      1   0   0
  9253   432      1   0   0
  9253   433      1   0   0
  9253  8392      0   1   0
  9253  8832      0   1   0
  9253  8833      0   1   0
  9254  8813      0   0   0
  9254  8814      0   0   0
  9254  9233      0   0   0
  9254  9234      0   0   0
  9254  9253      0   0   0
  9254  9255      0   0   0
  9254   413      1   0   0
  9254   433      1   0   0
  9254   434      1   0   0
  9254  8393      0   1   0
  9254  8833      0   1   0
  9254  8834      0   1   0
  9255  8814      0   0   0
  9255  8815      0   0   0
  9255  9234      0   0   0
  9255  9235      0   0   0
  9255  9254      0   0   0
  9255  9256      0   0   0
  9255   414      1   0   0
  9255   434      1   0   0
  9255   435      1   0   0
  9255  8394      0   1   0
  9255  8834      0   1   0
  9255  8835      0   1   0
  9256  8815      0   0   0
  9256  8816      0   0   0
  9256  9235      0   0   0
  9256  9236      0   0   0
  9256  9255      0   0   0
  9256  9257      0   0   0
  9256   415      1   0   0
  9256   435      1   0   0
  9256   436      1   0   0
  9256  8395      0   1   0
  9256  8835      0   1   0
  9256  8836      0   1   0
  9257  8816      0   0   0
  9257  8817      0   0   0
  9257  9236      0   0   0
  9257  9237      0   0   0
  9257  9256      0   0   0
  9257  9258      0   0   0
  9257   416      1   0   0
  9257   436      1   0   0
  9257   437      1   0   0
  9257  8396      0   1   0
  9257  8836      0   1   0
  9257  8837      0   1   0
  9258  8817      0   0   0
  9258  8818      0   0   0
  9258  9237      0   0   0
  9258  9238      0   0   0
  9258  9257      0   0   0
  9258  9259      0   0   0
  9258   417      1   0   0
  9258   437      1   0   0
  9258   438      1   0   0
  9258  8397      0   1   0
  9258  8837      0   1   0
  9258  8838      0   1   0
  9259  8818      0   0   0
  9259  8819      0   0   0
  9259  9238      0   0   0
  9259  9239      0   0   0
  9259  9258      0   0   0
  9259  9260      0   0   0
  9259   418      1   0   0
  9259   438      1   0   0
  9259   439      1   0   0
  9259  8398      0   1   0
  9259  8838      0   1   0
  9259  8839      0   1   0
  9260  8819      0   0   0
  9260  8820      0   0   0
  9260  9239      0   0   0
  9260  9240      0   0   0
  9260  9259      0   0   0
  9260  9261      0   0   0
  9260   419      1   0   0
  9260   439      1   0   0
  9260   440      1   0   0
  9260  8399      0   1   0
  9260  8839      0   1   0
  9260  8840      0   1   0
  9261  8820      0   0   0
  9261  9240      0   0   0
  9261  9260      0   0   0
  9261   420      1   0   0
  9261   440      1   0   0
  9261   441      1   0   0
  9261  8400      0   1   0
  9261  8840      0   1   0
  9261  8841      0   1   0
  9261  8800      0   0   1
  9261  9220      0   0   1
  9261  9241      0   0   1
end nnkpts

begin exclude_bands
   0
end exclude_bands
