File written on 25Aug2023 at 08:16:24 

calc_only_A  :  F

begin real_lattice
   9.9999992   0.0000000   0.0000000
   0.0000000   9.9999992   0.0000000
   0.0000000   0.0000000   9.9999992
end real_lattice

begin recip_lattice
   0.6283186   0.0000000   0.0000000
   0.0000000   0.6283186   0.0000000
   0.0000000   0.0000000   0.6283186
end recip_lattice

begin kpoints
     1
    0.00000000    0.00000000    0.00000000
end kpoints

begin spinor_projections
    16
   0.00000    0.00000    0.00000     0  1  2
    0.0000000  0.0000000  1.0000000   1.0000000  0.0000000  0.0000000    1.00
    1   0.0000000  0.0000000  1.0000000
   0.00000    0.00000    0.00000     0  1  2
    0.0000000  0.0000000  1.0000000   1.0000000  0.0000000  0.0000000    1.00
   -1   0.0000000  0.0000000  1.0000000
   0.00000    0.00000    0.00000     1  1  2
    0.0000000  0.0000000  1.0000000   1.0000000  0.0000000  0.0000000    1.00
    1   0.0000000  0.0000000  1.0000000
   0.00000    0.00000    0.00000     1  1  2
    0.0000000  0.0000000  1.0000000   1.0000000  0.0000000  0.0000000    1.00
   -1   0.0000000  0.0000000  1.0000000
   0.00000    0.00000    0.00000     1  2  2
    0.0000000  0.0000000  1.0000000   1.0000000  0.0000000  0.0000000    1.00
    1   0.0000000  0.0000000  1.0000000
   0.00000    0.00000    0.00000     1  2  2
    0.0000000  0.0000000  1.0000000   1.0000000  0.0000000  0.0000000    1.00
   -1   0.0000000  0.0000000  1.0000000
   0.00000    0.00000    0.00000     1  3  2
    0.0000000  0.0000000  1.0000000   1.0000000  0.0000000  0.0000000    1.00
    1   0.0000000  0.0000000  1.0000000
   0.00000    0.00000    0.00000     1  3  2
    0.0000000  0.0000000  1.0000000   1.0000000  0.0000000  0.0000000    1.00
   -1   0.0000000  0.0000000  1.0000000
   0.06276    0.06276    0.06276     0  1  1
    0.0000000  0.0000000  1.0000000   1.0000000  0.0000000  0.0000000    1.00
    1   0.0000000  0.0000000  1.0000000
   0.06276    0.06276    0.06276     0  1  1
    0.0000000  0.0000000  1.0000000   1.0000000  0.0000000  0.0000000    1.00
   -1   0.0000000  0.0000000  1.0000000
  -0.06276   -0.06276    0.06276     0  1  1
    0.0000000  0.0000000  1.0000000   1.0000000  0.0000000  0.0000000    1.00
    1   0.0000000  0.0000000  1.0000000
  -0.06276   -0.06276    0.06276     0  1  1
    0.0000000  0.0000000  1.0000000   1.0000000  0.0000000  0.0000000    1.00
   -1   0.0000000  0.0000000  1.0000000
   0.06276   -0.06276   -0.06276     0  1  1
    0.0000000  0.0000000  1.0000000   1.0000000  0.0000000  0.0000000    1.00
    1   0.0000000  0.0000000  1.0000000
   0.06276   -0.06276   -0.06276     0  1  1
    0.0000000  0.0000000  1.0000000   1.0000000  0.0000000  0.0000000    1.00
   -1   0.0000000  0.0000000  1.0000000
  -0.06276    0.06276   -0.06276     0  1  1
    0.0000000  0.0000000  1.0000000   1.0000000  0.0000000  0.0000000    1.00
    1   0.0000000  0.0000000  1.0000000
  -0.06276    0.06276   -0.06276     0  1  1
    0.0000000  0.0000000  1.0000000   1.0000000  0.0000000  0.0000000    1.00
   -1   0.0000000  0.0000000  1.0000000
end spinor_projections

begin nnkpts
   6
     1     1      1   0   0
     1     1      0   1   0
     1     1      0   0   1
     1     1      0   0  -1
     1     1      0  -1   0
     1     1     -1   0   0
end nnkpts

begin exclude_bands
   0
end exclude_bands
