# written on 12Aug2025 at 16:56:48  (created by pw2cw)
          16
           1
    1
    0    0    0    1    1   -8.59833873E-01   0.00000000E+00
    0    0    0    2    1    6.83993140E-12   1.66458375E-11
    0    0    0    3    1   -2.74265361E-11   4.69664277E-11
    0    0    0    4    1   -1.96739594E-11  -2.46947305E-11
    0    0    0    5    1    1.64610142E-11  -1.11550161E-11
    0    0    0    6    1   -1.03376019E-11  -2.99128084E-11
    0    0    0    7    1    3.99948217E-11   9.67178388E-12
    0    0    0    8    1    7.53165025E-11  -5.37384126E-12
    0    0    0    9    1   -1.06096190E+00  -1.65866193E-11
    0    0    0   10    1    1.13447749E-11   4.64876041E-11
    0    0    0   11    1   -1.06096190E+00  -8.57051980E-12
    0    0    0   12    1   -2.32894515E-11   8.50957868E-11
    0    0    0   13    1   -1.06096190E+00  -9.54844796E-11
    0    0    0   14    1    4.02362282E-11   1.37576158E-10
    0    0    0   15    1   -1.06096190E+00   2.16489691E-12
    0    0    0   16    1    1.60901185E-11   3.53348112E-11
    0    0    0    1    2    6.83993140E-12  -1.66458375E-11
    0    0    0    2    2   -8.59833873E-01   0.00000000E+00
    0    0    0    3    2    5.06903785E-12  -5.63868919E-11
    0    0    0    4    2   -7.00352449E-12   7.10434715E-11
    0    0    0    5    2   -1.53124506E-12   1.72804755E-11
    0    0    0    6    2    1.61291056E-11   2.41463712E-11
    0    0    0    7    2    5.86020228E-12   3.05132844E-11
    0    0    0    8    2   -9.42108931E-11   3.86977303E-11
    0    0    0    9    2   -2.27426275E-12   1.45467211E-11
    0    0    0   10    2   -1.06096190E+00   3.12773718E-11
    0    0    0   11    2    1.12315238E-11   1.96548685E-11
    0    0    0   12    2   -1.06096190E+00   5.37766562E-12
    0    0    0   13    2    2.30719734E-11  -3.52108515E-12
    0    0    0   14    2   -1.06096190E+00   3.54184436E-11
    0    0    0   15    2    2.63812980E-11   2.36571956E-11
    0    0    0   16    2   -1.06096190E+00   2.29399620E-11
    0    0    0    1    3   -2.74265361E-11  -4.69664277E-11
    0    0    0    2    3    5.06903785E-12   5.63868919E-11
    0    0    0    3    3    9.69304036E-01   0.00000000E+00
    0    0    0    4    3    8.77659057E-13   1.47325208E-12
    0    0    0    5    3   -3.17575827E-13   8.77929673E-13
    0    0    0    6    3   -1.46292791E-04   1.67062371E-12
    0    0    0    7    3   -9.20860610E-13   9.74744103E-13
    0    0    0    8    3   -2.58763497E-13  -1.46292792E-04
    0    0    0    9    3    3.34896541E-02  -2.17798581E-10
    0    0    0   10    3   -5.28180927E-04  -5.28180712E-04
    0    0    0   11    3    3.34896538E-02  -3.00107733E-11
    0    0    0   12    3    5.28180806E-04   5.28181069E-04
    0    0    0   13    3   -3.34896543E-02  -8.33171589E-11
    0    0    0   14    3   -5.28180728E-04   5.28180899E-04
    0    0    0   15    3   -3.34896540E-02  -1.06492755E-10
    0    0    0   16    3    5.28180902E-04  -5.28180527E-04
    0    0    0    1    4   -1.96739594E-11   2.46947305E-11
    0    0    0    2    4   -7.00352449E-12  -7.10434715E-11
    0    0    0    3    4    8.77659057E-13  -1.47325208E-12
    0    0    0    4    4    9.69304036E-01   0.00000000E+00
    0    0    0    5    4    1.46292791E-04  -6.80917128E-13
    0    0    0    6    4    2.80848261E-13  -9.94940241E-13
    0    0    0    7    4   -2.94868296E-13  -1.46292793E-04
    0    0    0    8    4   -5.99611506E-14  -1.60403049E-12
    0    0    0    9    4    5.28180813E-04  -5.28180598E-04
    0    0    0   10    4    3.34896539E-02  -9.47278821E-11
    0    0    0   11    4   -5.28180949E-04   5.28180976E-04
    0    0    0   12    4    3.34896540E-02  -3.31949731E-10
    0    0    0   13    4    5.28180787E-04   5.28180854E-04
    0    0    0   14    4   -3.34896539E-02  -2.11010973E-10
    0    0    0   15    4   -5.28180942E-04  -5.28180929E-04
    0    0    0   16    4   -3.34896539E-02  -2.49217802E-10
    0    0    0    1    5    1.64610142E-11   1.11550161E-11
    0    0    0    2    5   -1.53124506E-12  -1.72804755E-11
    0    0    0    3    5   -3.17575827E-13  -8.77929673E-13
    0    0    0    4    5    1.46292791E-04   6.80917128E-13
    0    0    0    5    5    9.69304036E-01   0.00000000E+00
    0    0    0    6    5   -1.21259947E-12   1.97324795E-14
    0    0    0    7    5    1.19924383E-12   1.46292792E-04
    0    0    0    8    5    2.01589830E-13   2.52569016E-13
    0    0    0    9    5    3.34896540E-02   5.28180920E-04
    0    0    0   10    5    5.28180877E-04  -8.95257201E-11
    0    0    0   11    5   -3.34896539E-02  -5.28180864E-04
    0    0    0   12    5    5.28180772E-04  -1.82426081E-11
    0    0    0   13    5    3.34896541E-02  -5.28180792E-04
    0    0    0   14    5   -5.28180735E-04  -2.52607201E-11
    0    0    0   15    5   -3.34896540E-02   5.28180747E-04
    0    0    0   16    5   -5.28180918E-04  -7.88644807E-11
    0    0    0    1    6   -1.03376019E-11   2.99128084E-11
    0    0    0    2    6    1.61291056E-11  -2.41463712E-11
    0    0    0    3    6   -1.46292791E-04  -1.67062371E-12
    0    0    0    4    6    2.80848261E-13   9.94940241E-13
    0    0    0    5    6   -1.21259947E-12  -1.97324795E-14
    0    0    0    6    6    9.69304036E-01   0.00000000E+00
    0    0    0    7    6   -4.17513246E-14   1.32864726E-12
    0    0    0    8    6   -2.33883746E-12  -1.46292791E-04
    0    0    0    9    6   -5.28180923E-04   2.52827894E-11
    0    0    0   10    6    3.34896540E-02  -5.28180883E-04
    0    0    0   11    6   -5.28180944E-04   2.17821453E-10
    0    0    0   12    6   -3.34896539E-02   5.28180712E-04
    0    0    0   13    6    5.28180887E-04   1.28250513E-10
    0    0    0   14    6    3.34896540E-02   5.28180790E-04
    0    0    0   15    6    5.28180815E-04  -4.97040988E-11
    0    0    0   16    6   -3.34896539E-02  -5.28180922E-04
    0    0    0    1    7    3.99948217E-11  -9.67178388E-12
    0    0    0    2    7    5.86020228E-12  -3.05132844E-11
    0    0    0    3    7   -9.20860610E-13  -9.74744103E-13
    0    0    0    4    7   -2.94868296E-13   1.46292793E-04
    0    0    0    5    7    1.19924383E-12  -1.46292792E-04
    0    0    0    6    7   -4.17513246E-14  -1.32864726E-12
    0    0    0    7    7    9.69304036E-01   0.00000000E+00
    0    0    0    8    7    1.26697264E-12   1.75970198E-12
    0    0    0    9    7    3.34896538E-02  -5.28180742E-04
    0    0    0   10    7    3.45715301E-11   5.28180591E-04
    0    0    0   11    7   -3.34896537E-02   5.28180761E-04
    0    0    0   12    7    4.85030452E-11   5.28180639E-04
    0    0    0   13    7   -3.34896537E-02  -5.28180945E-04
    0    0    0   14    7    4.42558778E-11  -5.28180783E-04
    0    0    0   15    7    3.34896540E-02   5.28180862E-04
    0    0    0   16    7   -2.95932013E-11  -5.28180878E-04
    0    0    0    1    8    7.53165025E-11   5.37384126E-12
    0    0    0    2    8   -9.42108931E-11  -3.86977303E-11
    0    0    0    3    8   -2.58763497E-13   1.46292792E-04
    0    0    0    4    8   -5.99611506E-14   1.60403049E-12
    0    0    0    5    8    2.01589830E-13  -2.52569016E-13
    0    0    0    6    8   -2.33883746E-12   1.46292791E-04
    0    0    0    7    8    1.26697264E-12  -1.75970198E-12
    0    0    0    8    8    9.69304036E-01   0.00000000E+00
    0    0    0    9    8    1.84716472E-10   5.28181010E-04
    0    0    0   10    8    3.34896539E-02   5.28180670E-04
    0    0    0   11    8    3.34415713E-10   5.28180832E-04
    0    0    0   12    8   -3.34896544E-02  -5.28181059E-04
    0    0    0   13    8    2.38734770E-10  -5.28180955E-04
    0    0    0   14    8   -3.34896541E-02   5.28180895E-04
    0    0    0   15    8    8.34827156E-11  -5.28180726E-04
    0    0    0   16    8    3.34896535E-02  -5.28180989E-04
    0    0    0    1    9   -1.06096190E+00   1.65866193E-11
    0    0    0    2    9   -2.27426275E-12  -1.45467211E-11
    0    0    0    3    9    3.34896541E-02   2.17798581E-10
    0    0    0    4    9    5.28180813E-04   5.28180598E-04
    0    0    0    5    9    3.34896540E-02  -5.28180920E-04
    0    0    0    6    9   -5.28180923E-04  -2.52827894E-11
    0    0    0    7    9    3.34896538E-02   5.28180742E-04
    0    0    0    8    9    1.84716472E-10  -5.28181010E-04
    0    0    0    9    9   -1.12921200E+01   0.00000000E+00
    0    0    0   10    9   -1.44864277E-11   2.37757962E-11
    0    0    0   11    9   -1.83730594E+00  -1.46646215E-12
    0    0    0   12    9    7.78401827E-04   7.78401802E-04
    0    0    0   13    9   -1.83730594E+00  -7.78401838E-04
    0    0    0   14    9   -7.78401835E-04  -1.65012423E-11
    0    0    0   15    9   -1.83730594E+00   7.78401844E-04
    0    0    0   16    9    2.07223188E-11  -7.78401788E-04
    0    0    0    1   10    1.13447749E-11  -4.64876041E-11
    0    0    0    2   10   -1.06096190E+00  -3.12773718E-11
    0    0    0    3   10   -5.28180927E-04   5.28180712E-04
    0    0    0    4   10    3.34896539E-02   9.47278821E-11
    0    0    0    5   10    5.28180877E-04   8.95257201E-11
    0    0    0    6   10    3.34896540E-02   5.28180883E-04
    0    0    0    7   10    3.45715301E-11  -5.28180591E-04
    0    0    0    8   10    3.34896539E-02  -5.28180670E-04
    0    0    0    9   10   -1.44864277E-11  -2.37757962E-11
    0    0    0   10   10   -1.12921200E+01   0.00000000E+00
    0    0    0   11   10   -7.78401849E-04   7.78401816E-04
    0    0    0   12   10   -1.83730594E+00  -1.30085069E-11
    0    0    0   13   10    7.78401806E-04  -2.58130545E-11
    0    0    0   14   10   -1.83730594E+00   7.78401813E-04
    0    0    0   15   10   -5.49468455E-12  -7.78401830E-04
    0    0    0   16   10   -1.83730594E+00  -7.78401870E-04
    0    0    0    1   11   -1.06096190E+00   8.57051980E-12
    0    0    0    2   11    1.12315238E-11  -1.96548685E-11
    0    0    0    3   11    3.34896538E-02   3.00107733E-11
    0    0    0    4   11   -5.28180949E-04  -5.28180976E-04
    0    0    0    5   11   -3.34896539E-02   5.28180864E-04
    0    0    0    6   11   -5.28180944E-04  -2.17821453E-10
    0    0    0    7   11   -3.34896537E-02  -5.28180761E-04
    0    0    0    8   11    3.34415713E-10  -5.28180832E-04
    0    0    0    9   11   -1.83730594E+00   1.46646215E-12
    0    0    0   10   11   -7.78401849E-04  -7.78401816E-04
    0    0    0   11   11   -1.12921200E+01   0.00000000E+00
    0    0    0   12   11   -6.93286479E-12  -3.85736207E-11
    0    0    0   13   11   -1.83730594E+00   7.78401827E-04
    0    0    0   14   11   -7.90434283E-12   7.78401801E-04
    0    0    0   15   11   -1.83730594E+00  -7.78401814E-04
    0    0    0   16   11    7.78401850E-04   3.30228829E-11
    0    0    0    1   12   -2.32894515E-11  -8.50957868E-11
    0    0    0    2   12   -1.06096190E+00  -5.37766562E-12
    0    0    0    3   12    5.28180806E-04  -5.28181069E-04
    0    0    0    4   12    3.34896540E-02   3.31949731E-10
    0    0    0    5   12    5.28180772E-04   1.82426081E-11
    0    0    0    6   12   -3.34896539E-02  -5.28180712E-04
    0    0    0    7   12    4.85030452E-11  -5.28180639E-04
    0    0    0    8   12   -3.34896544E-02   5.28181059E-04
    0    0    0    9   12    7.78401827E-04  -7.78401802E-04
    0    0    0   10   12   -1.83730594E+00   1.30085069E-11
    0    0    0   11   12   -6.93286479E-12   3.85736207E-11
    0    0    0   12   12   -1.12921200E+01   0.00000000E+00
    0    0    0   13   12   -1.57419647E-11   7.78401860E-04
    0    0    0   14   12   -1.83730594E+00  -7.78401839E-04
    0    0    0   15   12   -7.78401825E-04   5.56516183E-11
    0    0    0   16   12   -1.83730594E+00   7.78401803E-04
    0    0    0    1   13   -1.06096190E+00   9.54844796E-11
    0    0    0    2   13    2.30719734E-11   3.52108515E-12
    0    0    0    3   13   -3.34896543E-02   8.33171589E-11
    0    0    0    4   13    5.28180787E-04  -5.28180854E-04
    0    0    0    5   13    3.34896541E-02   5.28180792E-04
    0    0    0    6   13    5.28180887E-04  -1.28250513E-10
    0    0    0    7   13   -3.34896537E-02   5.28180945E-04
    0    0    0    8   13    2.38734770E-10   5.28180955E-04
    0    0    0    9   13   -1.83730594E+00   7.78401838E-04
    0    0    0   10   13    7.78401806E-04   2.58130545E-11
    0    0    0   11   13   -1.83730594E+00  -7.78401827E-04
    0    0    0   12   13   -1.57419647E-11  -7.78401860E-04
    0    0    0   13   13   -1.12921200E+01   0.00000000E+00
    0    0    0   14   13   -1.59659997E-11  -1.94103941E-11
    0    0    0   15   13   -1.83730594E+00   2.03438908E-11
    0    0    0   16   13   -7.78401822E-04   7.78401872E-04
    0    0    0    1   14    4.02362282E-11  -1.37576158E-10
    0    0    0    2   14   -1.06096190E+00  -3.54184436E-11
    0    0    0    3   14   -5.28180728E-04  -5.28180899E-04
    0    0    0    4   14   -3.34896539E-02   2.11010973E-10
    0    0    0    5   14   -5.28180735E-04   2.52607201E-11
    0    0    0    6   14    3.34896540E-02  -5.28180790E-04
    0    0    0    7   14    4.42558778E-11   5.28180783E-04
    0    0    0    8   14   -3.34896541E-02  -5.28180895E-04
    0    0    0    9   14   -7.78401835E-04   1.65012423E-11
    0    0    0   10   14   -1.83730594E+00  -7.78401813E-04
    0    0    0   11   14   -7.90434283E-12  -7.78401801E-04
    0    0    0   12   14   -1.83730594E+00   7.78401839E-04
    0    0    0   13   14   -1.59659997E-11   1.94103941E-11
    0    0    0   14   14   -1.12921200E+01   0.00000000E+00
    0    0    0   15   14    7.78401836E-04   7.78401875E-04
    0    0    0   16   14   -1.83730594E+00  -2.11580983E-11
    0    0    0    1   15   -1.06096190E+00  -2.16489691E-12
    0    0    0    2   15    2.63812980E-11  -2.36571956E-11
    0    0    0    3   15   -3.34896540E-02   1.06492755E-10
    0    0    0    4   15   -5.28180942E-04   5.28180929E-04
    0    0    0    5   15   -3.34896540E-02  -5.28180747E-04
    0    0    0    6   15    5.28180815E-04   4.97040988E-11
    0    0    0    7   15    3.34896540E-02  -5.28180862E-04
    0    0    0    8   15    8.34827156E-11   5.28180726E-04
    0    0    0    9   15   -1.83730594E+00  -7.78401844E-04
    0    0    0   10   15   -5.49468455E-12   7.78401830E-04
    0    0    0   11   15   -1.83730594E+00   7.78401814E-04
    0    0    0   12   15   -7.78401825E-04  -5.56516183E-11
    0    0    0   13   15   -1.83730594E+00  -2.03438908E-11
    0    0    0   14   15    7.78401836E-04  -7.78401875E-04
    0    0    0   15   15   -1.12921200E+01   0.00000000E+00
    0    0    0   16   15    2.96257107E-11   1.42200395E-11
    0    0    0    1   16    1.60901185E-11  -3.53348112E-11
    0    0    0    2   16   -1.06096190E+00  -2.29399620E-11
    0    0    0    3   16    5.28180902E-04   5.28180527E-04
    0    0    0    4   16   -3.34896539E-02   2.49217802E-10
    0    0    0    5   16   -5.28180918E-04   7.88644807E-11
    0    0    0    6   16   -3.34896539E-02   5.28180922E-04
    0    0    0    7   16   -2.95932013E-11   5.28180878E-04
    0    0    0    8   16    3.34896535E-02   5.28180989E-04
    0    0    0    9   16    2.07223188E-11   7.78401788E-04
    0    0    0   10   16   -1.83730594E+00   7.78401870E-04
    0    0    0   11   16    7.78401850E-04  -3.30228829E-11
    0    0    0   12   16   -1.83730594E+00  -7.78401803E-04
    0    0    0   13   16   -7.78401822E-04  -7.78401872E-04
    0    0    0   14   16   -1.83730594E+00   2.11580983E-11
    0    0    0   15   16    2.96257107E-11  -1.42200395E-11
    0    0    0   16   16   -1.12921200E+01   0.00000000E+00

