File written on  6Oct2023 at 02:36:00 

calc_only_A  :  F

begin real_lattice
   3.1660672   0.0000000   0.0000000
  -1.5830336   2.7418947   0.0000000
   0.0000000   0.0000000  31.6606724
end real_lattice

begin recip_lattice
   1.9845394   1.1457744   0.0000000
   0.0000000   2.2915488   0.0000000
   0.0000000   0.0000000   0.1984539
end recip_lattice

begin kpoints
   625
    0.00000000    0.00000000    0.00000000
    0.00000000    0.04000000    0.00000000
    0.00000000    0.08000000    0.00000000
    0.00000000    0.12000000    0.00000000
    0.00000000    0.16000000    0.00000000
    0.00000000    0.20000000    0.00000000
    0.00000000    0.24000000    0.00000000
    0.00000000    0.28000000    0.00000000
    0.00000000    0.32000000    0.00000000
    0.00000000    0.36000000    0.00000000
    0.00000000    0.40000000    0.00000000
    0.00000000    0.44000000    0.00000000
    0.00000000    0.48000000    0.00000000
    0.00000000    0.52000000    0.00000000
    0.00000000    0.56000000    0.00000000
    0.00000000    0.60000000    0.00000000
    0.00000000    0.64000000    0.00000000
    0.00000000    0.68000000    0.00000000
    0.00000000    0.72000000    0.00000000
    0.00000000    0.76000000    0.00000000
    0.00000000    0.80000000    0.00000000
    0.00000000    0.84000000    0.00000000
    0.00000000    0.88000000    0.00000000
    0.00000000    0.92000000    0.00000000
    0.00000000    0.96000000    0.00000000
    0.04000000    0.00000000    0.00000000
    0.04000000    0.04000000    0.00000000
    0.04000000    0.08000000    0.00000000
    0.04000000    0.12000000    0.00000000
    0.04000000    0.16000000    0.00000000
    0.04000000    0.20000000    0.00000000
    0.04000000    0.24000000    0.00000000
    0.04000000    0.28000000    0.00000000
    0.04000000    0.32000000    0.00000000
    0.04000000    0.36000000    0.00000000
    0.04000000    0.40000000    0.00000000
    0.04000000    0.44000000    0.00000000
    0.04000000    0.48000000    0.00000000
    0.04000000    0.52000000    0.00000000
    0.04000000    0.56000000    0.00000000
    0.04000000    0.60000000    0.00000000
    0.04000000    0.64000000    0.00000000
    0.04000000    0.68000000    0.00000000
    0.04000000    0.72000000    0.00000000
    0.04000000    0.76000000    0.00000000
    0.04000000    0.80000000    0.00000000
    0.04000000    0.84000000    0.00000000
    0.04000000    0.88000000    0.00000000
    0.04000000    0.92000000    0.00000000
    0.04000000    0.96000000    0.00000000
    0.08000000    0.00000000    0.00000000
    0.08000000    0.04000000    0.00000000
    0.08000000    0.08000000    0.00000000
    0.08000000    0.12000000    0.00000000
    0.08000000    0.16000000    0.00000000
    0.08000000    0.20000000    0.00000000
    0.08000000    0.24000000    0.00000000
    0.08000000    0.28000000    0.00000000
    0.08000000    0.32000000    0.00000000
    0.08000000    0.36000000    0.00000000
    0.08000000    0.40000000    0.00000000
    0.08000000    0.44000000    0.00000000
    0.08000000    0.48000000    0.00000000
    0.08000000    0.52000000    0.00000000
    0.08000000    0.56000000    0.00000000
    0.08000000    0.60000000    0.00000000
    0.08000000    0.64000000    0.00000000
    0.08000000    0.68000000    0.00000000
    0.08000000    0.72000000    0.00000000
    0.08000000    0.76000000    0.00000000
    0.08000000    0.80000000    0.00000000
    0.08000000    0.84000000    0.00000000
    0.08000000    0.88000000    0.00000000
    0.08000000    0.92000000    0.00000000
    0.08000000    0.96000000    0.00000000
    0.12000000    0.00000000    0.00000000
    0.12000000    0.04000000    0.00000000
    0.12000000    0.08000000    0.00000000
    0.12000000    0.12000000    0.00000000
    0.12000000    0.16000000    0.00000000
    0.12000000    0.20000000    0.00000000
    0.12000000    0.24000000    0.00000000
    0.12000000    0.28000000    0.00000000
    0.12000000    0.32000000    0.00000000
    0.12000000    0.36000000    0.00000000
    0.12000000    0.40000000    0.00000000
    0.12000000    0.44000000    0.00000000
    0.12000000    0.48000000    0.00000000
    0.12000000    0.52000000    0.00000000
    0.12000000    0.56000000    0.00000000
    0.12000000    0.60000000    0.00000000
    0.12000000    0.64000000    0.00000000
    0.12000000    0.68000000    0.00000000
    0.12000000    0.72000000    0.00000000
    0.12000000    0.76000000    0.00000000
    0.12000000    0.80000000    0.00000000
    0.12000000    0.84000000    0.00000000
    0.12000000    0.88000000    0.00000000
    0.12000000    0.92000000    0.00000000
    0.12000000    0.96000000    0.00000000
    0.16000000    0.00000000    0.00000000
    0.16000000    0.04000000    0.00000000
    0.16000000    0.08000000    0.00000000
    0.16000000    0.12000000    0.00000000
    0.16000000    0.16000000    0.00000000
    0.16000000    0.20000000    0.00000000
    0.16000000    0.24000000    0.00000000
    0.16000000    0.28000000    0.00000000
    0.16000000    0.32000000    0.00000000
    0.16000000    0.36000000    0.00000000
    0.16000000    0.40000000    0.00000000
    0.16000000    0.44000000    0.00000000
    0.16000000    0.48000000    0.00000000
    0.16000000    0.52000000    0.00000000
    0.16000000    0.56000000    0.00000000
    0.16000000    0.60000000    0.00000000
    0.16000000    0.64000000    0.00000000
    0.16000000    0.68000000    0.00000000
    0.16000000    0.72000000    0.00000000
    0.16000000    0.76000000    0.00000000
    0.16000000    0.80000000    0.00000000
    0.16000000    0.84000000    0.00000000
    0.16000000    0.88000000    0.00000000
    0.16000000    0.92000000    0.00000000
    0.16000000    0.96000000    0.00000000
    0.20000000    0.00000000    0.00000000
    0.20000000    0.04000000    0.00000000
    0.20000000    0.08000000    0.00000000
    0.20000000    0.12000000    0.00000000
    0.20000000    0.16000000    0.00000000
    0.20000000    0.20000000    0.00000000
    0.20000000    0.24000000    0.00000000
    0.20000000    0.28000000    0.00000000
    0.20000000    0.32000000    0.00000000
    0.20000000    0.36000000    0.00000000
    0.20000000    0.40000000    0.00000000
    0.20000000    0.44000000    0.00000000
    0.20000000    0.48000000    0.00000000
    0.20000000    0.52000000    0.00000000
    0.20000000    0.56000000    0.00000000
    0.20000000    0.60000000    0.00000000
    0.20000000    0.64000000    0.00000000
    0.20000000    0.68000000    0.00000000
    0.20000000    0.72000000    0.00000000
    0.20000000    0.76000000    0.00000000
    0.20000000    0.80000000    0.00000000
    0.20000000    0.84000000    0.00000000
    0.20000000    0.88000000    0.00000000
    0.20000000    0.92000000    0.00000000
    0.20000000    0.96000000    0.00000000
    0.24000000    0.00000000    0.00000000
    0.24000000    0.04000000    0.00000000
    0.24000000    0.08000000    0.00000000
    0.24000000    0.12000000    0.00000000
    0.24000000    0.16000000    0.00000000
    0.24000000    0.20000000    0.00000000
    0.24000000    0.24000000    0.00000000
    0.24000000    0.28000000    0.00000000
    0.24000000    0.32000000    0.00000000
    0.24000000    0.36000000    0.00000000
    0.24000000    0.40000000    0.00000000
    0.24000000    0.44000000    0.00000000
    0.24000000    0.48000000    0.00000000
    0.24000000    0.52000000    0.00000000
    0.24000000    0.56000000    0.00000000
    0.24000000    0.60000000    0.00000000
    0.24000000    0.64000000    0.00000000
    0.24000000    0.68000000    0.00000000
    0.24000000    0.72000000    0.00000000
    0.24000000    0.76000000    0.00000000
    0.24000000    0.80000000    0.00000000
    0.24000000    0.84000000    0.00000000
    0.24000000    0.88000000    0.00000000
    0.24000000    0.92000000    0.00000000
    0.24000000    0.96000000    0.00000000
    0.28000000    0.00000000    0.00000000
    0.28000000    0.04000000    0.00000000
    0.28000000    0.08000000    0.00000000
    0.28000000    0.12000000    0.00000000
    0.28000000    0.16000000    0.00000000
    0.28000000    0.20000000    0.00000000
    0.28000000    0.24000000    0.00000000
    0.28000000    0.28000000    0.00000000
    0.28000000    0.32000000    0.00000000
    0.28000000    0.36000000    0.00000000
    0.28000000    0.40000000    0.00000000
    0.28000000    0.44000000    0.00000000
    0.28000000    0.48000000    0.00000000
    0.28000000    0.52000000    0.00000000
    0.28000000    0.56000000    0.00000000
    0.28000000    0.60000000    0.00000000
    0.28000000    0.64000000    0.00000000
    0.28000000    0.68000000    0.00000000
    0.28000000    0.72000000    0.00000000
    0.28000000    0.76000000    0.00000000
    0.28000000    0.80000000    0.00000000
    0.28000000    0.84000000    0.00000000
    0.28000000    0.88000000    0.00000000
    0.28000000    0.92000000    0.00000000
    0.28000000    0.96000000    0.00000000
    0.32000000    0.00000000    0.00000000
    0.32000000    0.04000000    0.00000000
    0.32000000    0.08000000    0.00000000
    0.32000000    0.12000000    0.00000000
    0.32000000    0.16000000    0.00000000
    0.32000000    0.20000000    0.00000000
    0.32000000    0.24000000    0.00000000
    0.32000000    0.28000000    0.00000000
    0.32000000    0.32000000    0.00000000
    0.32000000    0.36000000    0.00000000
    0.32000000    0.40000000    0.00000000
    0.32000000    0.44000000    0.00000000
    0.32000000    0.48000000    0.00000000
    0.32000000    0.52000000    0.00000000
    0.32000000    0.56000000    0.00000000
    0.32000000    0.60000000    0.00000000
    0.32000000    0.64000000    0.00000000
    0.32000000    0.68000000    0.00000000
    0.32000000    0.72000000    0.00000000
    0.32000000    0.76000000    0.00000000
    0.32000000    0.80000000    0.00000000
    0.32000000    0.84000000    0.00000000
    0.32000000    0.88000000    0.00000000
    0.32000000    0.92000000    0.00000000
    0.32000000    0.96000000    0.00000000
    0.36000000    0.00000000    0.00000000
    0.36000000    0.04000000    0.00000000
    0.36000000    0.08000000    0.00000000
    0.36000000    0.12000000    0.00000000
    0.36000000    0.16000000    0.00000000
    0.36000000    0.20000000    0.00000000
    0.36000000    0.24000000    0.00000000
    0.36000000    0.28000000    0.00000000
    0.36000000    0.32000000    0.00000000
    0.36000000    0.36000000    0.00000000
    0.36000000    0.40000000    0.00000000
    0.36000000    0.44000000    0.00000000
    0.36000000    0.48000000    0.00000000
    0.36000000    0.52000000    0.00000000
    0.36000000    0.56000000    0.00000000
    0.36000000    0.60000000    0.00000000
    0.36000000    0.64000000    0.00000000
    0.36000000    0.68000000    0.00000000
    0.36000000    0.72000000    0.00000000
    0.36000000    0.76000000    0.00000000
    0.36000000    0.80000000    0.00000000
    0.36000000    0.84000000    0.00000000
    0.36000000    0.88000000    0.00000000
    0.36000000    0.92000000    0.00000000
    0.36000000    0.96000000    0.00000000
    0.40000000    0.00000000    0.00000000
    0.40000000    0.04000000    0.00000000
    0.40000000    0.08000000    0.00000000
    0.40000000    0.12000000    0.00000000
    0.40000000    0.16000000    0.00000000
    0.40000000    0.20000000    0.00000000
    0.40000000    0.24000000    0.00000000
    0.40000000    0.28000000    0.00000000
    0.40000000    0.32000000    0.00000000
    0.40000000    0.36000000    0.00000000
    0.40000000    0.40000000    0.00000000
    0.40000000    0.44000000    0.00000000
    0.40000000    0.48000000    0.00000000
    0.40000000    0.52000000    0.00000000
    0.40000000    0.56000000    0.00000000
    0.40000000    0.60000000    0.00000000
    0.40000000    0.64000000    0.00000000
    0.40000000    0.68000000    0.00000000
    0.40000000    0.72000000    0.00000000
    0.40000000    0.76000000    0.00000000
    0.40000000    0.80000000    0.00000000
    0.40000000    0.84000000    0.00000000
    0.40000000    0.88000000    0.00000000
    0.40000000    0.92000000    0.00000000
    0.40000000    0.96000000    0.00000000
    0.44000000    0.00000000    0.00000000
    0.44000000    0.04000000    0.00000000
    0.44000000    0.08000000    0.00000000
    0.44000000    0.12000000    0.00000000
    0.44000000    0.16000000    0.00000000
    0.44000000    0.20000000    0.00000000
    0.44000000    0.24000000    0.00000000
    0.44000000    0.28000000    0.00000000
    0.44000000    0.32000000    0.00000000
    0.44000000    0.36000000    0.00000000
    0.44000000    0.40000000    0.00000000
    0.44000000    0.44000000    0.00000000
    0.44000000    0.48000000    0.00000000
    0.44000000    0.52000000    0.00000000
    0.44000000    0.56000000    0.00000000
    0.44000000    0.60000000    0.00000000
    0.44000000    0.64000000    0.00000000
    0.44000000    0.68000000    0.00000000
    0.44000000    0.72000000    0.00000000
    0.44000000    0.76000000    0.00000000
    0.44000000    0.80000000    0.00000000
    0.44000000    0.84000000    0.00000000
    0.44000000    0.88000000    0.00000000
    0.44000000    0.92000000    0.00000000
    0.44000000    0.96000000    0.00000000
    0.48000000    0.00000000    0.00000000
    0.48000000    0.04000000    0.00000000
    0.48000000    0.08000000    0.00000000
    0.48000000    0.12000000    0.00000000
    0.48000000    0.16000000    0.00000000
    0.48000000    0.20000000    0.00000000
    0.48000000    0.24000000    0.00000000
    0.48000000    0.28000000    0.00000000
    0.48000000    0.32000000    0.00000000
    0.48000000    0.36000000    0.00000000
    0.48000000    0.40000000    0.00000000
    0.48000000    0.44000000    0.00000000
    0.48000000    0.48000000    0.00000000
    0.48000000    0.52000000    0.00000000
    0.48000000    0.56000000    0.00000000
    0.48000000    0.60000000    0.00000000
    0.48000000    0.64000000    0.00000000
    0.48000000    0.68000000    0.00000000
    0.48000000    0.72000000    0.00000000
    0.48000000    0.76000000    0.00000000
    0.48000000    0.80000000    0.00000000
    0.48000000    0.84000000    0.00000000
    0.48000000    0.88000000    0.00000000
    0.48000000    0.92000000    0.00000000
    0.48000000    0.96000000    0.00000000
    0.52000000    0.00000000    0.00000000
    0.52000000    0.04000000    0.00000000
    0.52000000    0.08000000    0.00000000
    0.52000000    0.12000000    0.00000000
    0.52000000    0.16000000    0.00000000
    0.52000000    0.20000000    0.00000000
    0.52000000    0.24000000    0.00000000
    0.52000000    0.28000000    0.00000000
    0.52000000    0.32000000    0.00000000
    0.52000000    0.36000000    0.00000000
    0.52000000    0.40000000    0.00000000
    0.52000000    0.44000000    0.00000000
    0.52000000    0.48000000    0.00000000
    0.52000000    0.52000000    0.00000000
    0.52000000    0.56000000    0.00000000
    0.52000000    0.60000000    0.00000000
    0.52000000    0.64000000    0.00000000
    0.52000000    0.68000000    0.00000000
    0.52000000    0.72000000    0.00000000
    0.52000000    0.76000000    0.00000000
    0.52000000    0.80000000    0.00000000
    0.52000000    0.84000000    0.00000000
    0.52000000    0.88000000    0.00000000
    0.52000000    0.92000000    0.00000000
    0.52000000    0.96000000    0.00000000
    0.56000000    0.00000000    0.00000000
    0.56000000    0.04000000    0.00000000
    0.56000000    0.08000000    0.00000000
    0.56000000    0.12000000    0.00000000
    0.56000000    0.16000000    0.00000000
    0.56000000    0.20000000    0.00000000
    0.56000000    0.24000000    0.00000000
    0.56000000    0.28000000    0.00000000
    0.56000000    0.32000000    0.00000000
    0.56000000    0.36000000    0.00000000
    0.56000000    0.40000000    0.00000000
    0.56000000    0.44000000    0.00000000
    0.56000000    0.48000000    0.00000000
    0.56000000    0.52000000    0.00000000
    0.56000000    0.56000000    0.00000000
    0.56000000    0.60000000    0.00000000
    0.56000000    0.64000000    0.00000000
    0.56000000    0.68000000    0.00000000
    0.56000000    0.72000000    0.00000000
    0.56000000    0.76000000    0.00000000
    0.56000000    0.80000000    0.00000000
    0.56000000    0.84000000    0.00000000
    0.56000000    0.88000000    0.00000000
    0.56000000    0.92000000    0.00000000
    0.56000000    0.96000000    0.00000000
    0.60000000    0.00000000    0.00000000
    0.60000000    0.04000000    0.00000000
    0.60000000    0.08000000    0.00000000
    0.60000000    0.12000000    0.00000000
    0.60000000    0.16000000    0.00000000
    0.60000000    0.20000000    0.00000000
    0.60000000    0.24000000    0.00000000
    0.60000000    0.28000000    0.00000000
    0.60000000    0.32000000    0.00000000
    0.60000000    0.36000000    0.00000000
    0.60000000    0.40000000    0.00000000
    0.60000000    0.44000000    0.00000000
    0.60000000    0.48000000    0.00000000
    0.60000000    0.52000000    0.00000000
    0.60000000    0.56000000    0.00000000
    0.60000000    0.60000000    0.00000000
    0.60000000    0.64000000    0.00000000
    0.60000000    0.68000000    0.00000000
    0.60000000    0.72000000    0.00000000
    0.60000000    0.76000000    0.00000000
    0.60000000    0.80000000    0.00000000
    0.60000000    0.84000000    0.00000000
    0.60000000    0.88000000    0.00000000
    0.60000000    0.92000000    0.00000000
    0.60000000    0.96000000    0.00000000
    0.64000000    0.00000000    0.00000000
    0.64000000    0.04000000    0.00000000
    0.64000000    0.08000000    0.00000000
    0.64000000    0.12000000    0.00000000
    0.64000000    0.16000000    0.00000000
    0.64000000    0.20000000    0.00000000
    0.64000000    0.24000000    0.00000000
    0.64000000    0.28000000    0.00000000
    0.64000000    0.32000000    0.00000000
    0.64000000    0.36000000    0.00000000
    0.64000000    0.40000000    0.00000000
    0.64000000    0.44000000    0.00000000
    0.64000000    0.48000000    0.00000000
    0.64000000    0.52000000    0.00000000
    0.64000000    0.56000000    0.00000000
    0.64000000    0.60000000    0.00000000
    0.64000000    0.64000000    0.00000000
    0.64000000    0.68000000    0.00000000
    0.64000000    0.72000000    0.00000000
    0.64000000    0.76000000    0.00000000
    0.64000000    0.80000000    0.00000000
    0.64000000    0.84000000    0.00000000
    0.64000000    0.88000000    0.00000000
    0.64000000    0.92000000    0.00000000
    0.64000000    0.96000000    0.00000000
    0.68000000    0.00000000    0.00000000
    0.68000000    0.04000000    0.00000000
    0.68000000    0.08000000    0.00000000
    0.68000000    0.12000000    0.00000000
    0.68000000    0.16000000    0.00000000
    0.68000000    0.20000000    0.00000000
    0.68000000    0.24000000    0.00000000
    0.68000000    0.28000000    0.00000000
    0.68000000    0.32000000    0.00000000
    0.68000000    0.36000000    0.00000000
    0.68000000    0.40000000    0.00000000
    0.68000000    0.44000000    0.00000000
    0.68000000    0.48000000    0.00000000
    0.68000000    0.52000000    0.00000000
    0.68000000    0.56000000    0.00000000
    0.68000000    0.60000000    0.00000000
    0.68000000    0.64000000    0.00000000
    0.68000000    0.68000000    0.00000000
    0.68000000    0.72000000    0.00000000
    0.68000000    0.76000000    0.00000000
    0.68000000    0.80000000    0.00000000
    0.68000000    0.84000000    0.00000000
    0.68000000    0.88000000    0.00000000
    0.68000000    0.92000000    0.00000000
    0.68000000    0.96000000    0.00000000
    0.72000000    0.00000000    0.00000000
    0.72000000    0.04000000    0.00000000
    0.72000000    0.08000000    0.00000000
    0.72000000    0.12000000    0.00000000
    0.72000000    0.16000000    0.00000000
    0.72000000    0.20000000    0.00000000
    0.72000000    0.24000000    0.00000000
    0.72000000    0.28000000    0.00000000
    0.72000000    0.32000000    0.00000000
    0.72000000    0.36000000    0.00000000
    0.72000000    0.40000000    0.00000000
    0.72000000    0.44000000    0.00000000
    0.72000000    0.48000000    0.00000000
    0.72000000    0.52000000    0.00000000
    0.72000000    0.56000000    0.00000000
    0.72000000    0.60000000    0.00000000
    0.72000000    0.64000000    0.00000000
    0.72000000    0.68000000    0.00000000
    0.72000000    0.72000000    0.00000000
    0.72000000    0.76000000    0.00000000
    0.72000000    0.80000000    0.00000000
    0.72000000    0.84000000    0.00000000
    0.72000000    0.88000000    0.00000000
    0.72000000    0.92000000    0.00000000
    0.72000000    0.96000000    0.00000000
    0.76000000    0.00000000    0.00000000
    0.76000000    0.04000000    0.00000000
    0.76000000    0.08000000    0.00000000
    0.76000000    0.12000000    0.00000000
    0.76000000    0.16000000    0.00000000
    0.76000000    0.20000000    0.00000000
    0.76000000    0.24000000    0.00000000
    0.76000000    0.28000000    0.00000000
    0.76000000    0.32000000    0.00000000
    0.76000000    0.36000000    0.00000000
    0.76000000    0.40000000    0.00000000
    0.76000000    0.44000000    0.00000000
    0.76000000    0.48000000    0.00000000
    0.76000000    0.52000000    0.00000000
    0.76000000    0.56000000    0.00000000
    0.76000000    0.60000000    0.00000000
    0.76000000    0.64000000    0.00000000
    0.76000000    0.68000000    0.00000000
    0.76000000    0.72000000    0.00000000
    0.76000000    0.76000000    0.00000000
    0.76000000    0.80000000    0.00000000
    0.76000000    0.84000000    0.00000000
    0.76000000    0.88000000    0.00000000
    0.76000000    0.92000000    0.00000000
    0.76000000    0.96000000    0.00000000
    0.80000000    0.00000000    0.00000000
    0.80000000    0.04000000    0.00000000
    0.80000000    0.08000000    0.00000000
    0.80000000    0.12000000    0.00000000
    0.80000000    0.16000000    0.00000000
    0.80000000    0.20000000    0.00000000
    0.80000000    0.24000000    0.00000000
    0.80000000    0.28000000    0.00000000
    0.80000000    0.32000000    0.00000000
    0.80000000    0.36000000    0.00000000
    0.80000000    0.40000000    0.00000000
    0.80000000    0.44000000    0.00000000
    0.80000000    0.48000000    0.00000000
    0.80000000    0.52000000    0.00000000
    0.80000000    0.56000000    0.00000000
    0.80000000    0.60000000    0.00000000
    0.80000000    0.64000000    0.00000000
    0.80000000    0.68000000    0.00000000
    0.80000000    0.72000000    0.00000000
    0.80000000    0.76000000    0.00000000
    0.80000000    0.80000000    0.00000000
    0.80000000    0.84000000    0.00000000
    0.80000000    0.88000000    0.00000000
    0.80000000    0.92000000    0.00000000
    0.80000000    0.96000000    0.00000000
    0.84000000    0.00000000    0.00000000
    0.84000000    0.04000000    0.00000000
    0.84000000    0.08000000    0.00000000
    0.84000000    0.12000000    0.00000000
    0.84000000    0.16000000    0.00000000
    0.84000000    0.20000000    0.00000000
    0.84000000    0.24000000    0.00000000
    0.84000000    0.28000000    0.00000000
    0.84000000    0.32000000    0.00000000
    0.84000000    0.36000000    0.00000000
    0.84000000    0.40000000    0.00000000
    0.84000000    0.44000000    0.00000000
    0.84000000    0.48000000    0.00000000
    0.84000000    0.52000000    0.00000000
    0.84000000    0.56000000    0.00000000
    0.84000000    0.60000000    0.00000000
    0.84000000    0.64000000    0.00000000
    0.84000000    0.68000000    0.00000000
    0.84000000    0.72000000    0.00000000
    0.84000000    0.76000000    0.00000000
    0.84000000    0.80000000    0.00000000
    0.84000000    0.84000000    0.00000000
    0.84000000    0.88000000    0.00000000
    0.84000000    0.92000000    0.00000000
    0.84000000    0.96000000    0.00000000
    0.88000000    0.00000000    0.00000000
    0.88000000    0.04000000    0.00000000
    0.88000000    0.08000000    0.00000000
    0.88000000    0.12000000    0.00000000
    0.88000000    0.16000000    0.00000000
    0.88000000    0.20000000    0.00000000
    0.88000000    0.24000000    0.00000000
    0.88000000    0.28000000    0.00000000
    0.88000000    0.32000000    0.00000000
    0.88000000    0.36000000    0.00000000
    0.88000000    0.40000000    0.00000000
    0.88000000    0.44000000    0.00000000
    0.88000000    0.48000000    0.00000000
    0.88000000    0.52000000    0.00000000
    0.88000000    0.56000000    0.00000000
    0.88000000    0.60000000    0.00000000
    0.88000000    0.64000000    0.00000000
    0.88000000    0.68000000    0.00000000
    0.88000000    0.72000000    0.00000000
    0.88000000    0.76000000    0.00000000
    0.88000000    0.80000000    0.00000000
    0.88000000    0.84000000    0.00000000
    0.88000000    0.88000000    0.00000000
    0.88000000    0.92000000    0.00000000
    0.88000000    0.96000000    0.00000000
    0.92000000    0.00000000    0.00000000
    0.92000000    0.04000000    0.00000000
    0.92000000    0.08000000    0.00000000
    0.92000000    0.12000000    0.00000000
    0.92000000    0.16000000    0.00000000
    0.92000000    0.20000000    0.00000000
    0.92000000    0.24000000    0.00000000
    0.92000000    0.28000000    0.00000000
    0.92000000    0.32000000    0.00000000
    0.92000000    0.36000000    0.00000000
    0.92000000    0.40000000    0.00000000
    0.92000000    0.44000000    0.00000000
    0.92000000    0.48000000    0.00000000
    0.92000000    0.52000000    0.00000000
    0.92000000    0.56000000    0.00000000
    0.92000000    0.60000000    0.00000000
    0.92000000    0.64000000    0.00000000
    0.92000000    0.68000000    0.00000000
    0.92000000    0.72000000    0.00000000
    0.92000000    0.76000000    0.00000000
    0.92000000    0.80000000    0.00000000
    0.92000000    0.84000000    0.00000000
    0.92000000    0.88000000    0.00000000
    0.92000000    0.92000000    0.00000000
    0.92000000    0.96000000    0.00000000
    0.96000000    0.00000000    0.00000000
    0.96000000    0.04000000    0.00000000
    0.96000000    0.08000000    0.00000000
    0.96000000    0.12000000    0.00000000
    0.96000000    0.16000000    0.00000000
    0.96000000    0.20000000    0.00000000
    0.96000000    0.24000000    0.00000000
    0.96000000    0.28000000    0.00000000
    0.96000000    0.32000000    0.00000000
    0.96000000    0.36000000    0.00000000
    0.96000000    0.40000000    0.00000000
    0.96000000    0.44000000    0.00000000
    0.96000000    0.48000000    0.00000000
    0.96000000    0.52000000    0.00000000
    0.96000000    0.56000000    0.00000000
    0.96000000    0.60000000    0.00000000
    0.96000000    0.64000000    0.00000000
    0.96000000    0.68000000    0.00000000
    0.96000000    0.72000000    0.00000000
    0.96000000    0.76000000    0.00000000
    0.96000000    0.80000000    0.00000000
    0.96000000    0.84000000    0.00000000
    0.96000000    0.88000000    0.00000000
    0.96000000    0.92000000    0.00000000
    0.96000000    0.96000000    0.00000000
end kpoints

begin projections
    11
   0.66667    0.33333    0.00000     2  1  1
    0.0000000  0.0000000  1.0000000   1.0000000  0.0000000  0.0000000    1.00
   0.66667    0.33333    0.00000     2  2  1
    0.0000000  0.0000000  1.0000000   1.0000000  0.0000000  0.0000000    1.00
   0.66667    0.33333    0.00000     2  3  1
    0.0000000  0.0000000  1.0000000   1.0000000  0.0000000  0.0000000    1.00
   0.66667    0.33333    0.00000     2  4  1
    0.0000000  0.0000000  1.0000000   1.0000000  0.0000000  0.0000000    1.00
   0.66667    0.33333    0.00000     2  5  1
    0.0000000  0.0000000  1.0000000   1.0000000  0.0000000  0.0000000    1.00
   0.33333    0.66667    0.04970     1  1  1
    0.0000000  0.0000000  1.0000000   1.0000000  0.0000000  0.0000000    1.00
   0.33333    0.66667    0.04970     1  2  1
    0.0000000  0.0000000  1.0000000   1.0000000  0.0000000  0.0000000    1.00
   0.33333    0.66667    0.04970     1  3  1
    0.0000000  0.0000000  1.0000000   1.0000000  0.0000000  0.0000000    1.00
   0.33333    0.66667   -0.04970     1  1  1
    0.0000000  0.0000000  1.0000000   1.0000000  0.0000000  0.0000000    1.00
   0.33333    0.66667   -0.04970     1  2  1
    0.0000000  0.0000000  1.0000000   1.0000000  0.0000000  0.0000000    1.00
   0.33333    0.66667   -0.04970     1  3  1
    0.0000000  0.0000000  1.0000000   1.0000000  0.0000000  0.0000000    1.00
end projections

begin nnkpts
   8
     1     2      0   0   0
     1    26      0   0   0
     1    25      0  -1   0
     1    50      0  -1   0
     1   601     -1   0   0
     1   602     -1   0   0
     1     1      0   0   1
     1     1      0   0  -1
     2     1      0   0   0
     2     3      0   0   0
     2    26      0   0   0
     2    27      0   0   0
     2   602     -1   0   0
     2   603     -1   0   0
     2     2      0   0   1
     2     2      0   0  -1
     3     2      0   0   0
     3     4      0   0   0
     3    27      0   0   0
     3    28      0   0   0
     3   603     -1   0   0
     3   604     -1   0   0
     3     3      0   0   1
     3     3      0   0  -1
     4     3      0   0   0
     4     5      0   0   0
     4    28      0   0   0
     4    29      0   0   0
     4   604     -1   0   0
     4   605     -1   0   0
     4     4      0   0   1
     4     4      0   0  -1
     5     4      0   0   0
     5     6      0   0   0
     5    29      0   0   0
     5    30      0   0   0
     5   605     -1   0   0
     5   606     -1   0   0
     5     5      0   0   1
     5     5      0   0  -1
     6     5      0   0   0
     6     7      0   0   0
     6    30      0   0   0
     6    31      0   0   0
     6   606     -1   0   0
     6   607     -1   0   0
     6     6      0   0   1
     6     6      0   0  -1
     7     6      0   0   0
     7     8      0   0   0
     7    31      0   0   0
     7    32      0   0   0
     7   607     -1   0   0
     7   608     -1   0   0
     7     7      0   0   1
     7     7      0   0  -1
     8     7      0   0   0
     8     9      0   0   0
     8    32      0   0   0
     8    33      0   0   0
     8   608     -1   0   0
     8   609     -1   0   0
     8     8      0   0   1
     8     8      0   0  -1
     9     8      0   0   0
     9    10      0   0   0
     9    33      0   0   0
     9    34      0   0   0
     9   609     -1   0   0
     9   610     -1   0   0
     9     9      0   0   1
     9     9      0   0  -1
    10     9      0   0   0
    10    11      0   0   0
    10    34      0   0   0
    10    35      0   0   0
    10   610     -1   0   0
    10   611     -1   0   0
    10    10      0   0   1
    10    10      0   0  -1
    11    10      0   0   0
    11    12      0   0   0
    11    35      0   0   0
    11    36      0   0   0
    11   611     -1   0   0
    11   612     -1   0   0
    11    11      0   0   1
    11    11      0   0  -1
    12    11      0   0   0
    12    13      0   0   0
    12    36      0   0   0
    12    37      0   0   0
    12   612     -1   0   0
    12   613     -1   0   0
    12    12      0   0   1
    12    12      0   0  -1
    13    12      0   0   0
    13    14      0   0   0
    13    37      0   0   0
    13    38      0   0   0
    13   613     -1   0   0
    13   614     -1   0   0
    13    13      0   0   1
    13    13      0   0  -1
    14    13      0   0   0
    14    15      0   0   0
    14    38      0   0   0
    14    39      0   0   0
    14   614     -1   0   0
    14   615     -1   0   0
    14    14      0   0   1
    14    14      0   0  -1
    15    14      0   0   0
    15    16      0   0   0
    15    39      0   0   0
    15    40      0   0   0
    15   615     -1   0   0
    15   616     -1   0   0
    15    15      0   0   1
    15    15      0   0  -1
    16    15      0   0   0
    16    17      0   0   0
    16    40      0   0   0
    16    41      0   0   0
    16   616     -1   0   0
    16   617     -1   0   0
    16    16      0   0   1
    16    16      0   0  -1
    17    16      0   0   0
    17    18      0   0   0
    17    41      0   0   0
    17    42      0   0   0
    17   617     -1   0   0
    17   618     -1   0   0
    17    17      0   0   1
    17    17      0   0  -1
    18    17      0   0   0
    18    19      0   0   0
    18    42      0   0   0
    18    43      0   0   0
    18   618     -1   0   0
    18   619     -1   0   0
    18    18      0   0   1
    18    18      0   0  -1
    19    18      0   0   0
    19    20      0   0   0
    19    43      0   0   0
    19    44      0   0   0
    19   619     -1   0   0
    19   620     -1   0   0
    19    19      0   0   1
    19    19      0   0  -1
    20    19      0   0   0
    20    21      0   0   0
    20    44      0   0   0
    20    45      0   0   0
    20   620     -1   0   0
    20   621     -1   0   0
    20    20      0   0   1
    20    20      0   0  -1
    21    20      0   0   0
    21    22      0   0   0
    21    45      0   0   0
    21    46      0   0   0
    21   621     -1   0   0
    21   622     -1   0   0
    21    21      0   0   1
    21    21      0   0  -1
    22    21      0   0   0
    22    23      0   0   0
    22    46      0   0   0
    22    47      0   0   0
    22   622     -1   0   0
    22   623     -1   0   0
    22    22      0   0   1
    22    22      0   0  -1
    23    22      0   0   0
    23    24      0   0   0
    23    47      0   0   0
    23    48      0   0   0
    23   623     -1   0   0
    23   624     -1   0   0
    23    23      0   0   1
    23    23      0   0  -1
    24    23      0   0   0
    24    25      0   0   0
    24    48      0   0   0
    24    49      0   0   0
    24   624     -1   0   0
    24   625     -1   0   0
    24    24      0   0   1
    24    24      0   0  -1
    25    24      0   0   0
    25    49      0   0   0
    25    50      0   0   0
    25     1      0   1   0
    25   601     -1   1   0
    25   625     -1   0   0
    25    25      0   0   1
    25    25      0   0  -1
    26     1      0   0   0
    26     2      0   0   0
    26    27      0   0   0
    26    51      0   0   0
    26    50      0  -1   0
    26    75      0  -1   0
    26    26      0   0   1
    26    26      0   0  -1
    27     2      0   0   0
    27     3      0   0   0
    27    26      0   0   0
    27    28      0   0   0
    27    51      0   0   0
    27    52      0   0   0
    27    27      0   0   1
    27    27      0   0  -1
    28     3      0   0   0
    28     4      0   0   0
    28    27      0   0   0
    28    29      0   0   0
    28    52      0   0   0
    28    53      0   0   0
    28    28      0   0   1
    28    28      0   0  -1
    29     4      0   0   0
    29     5      0   0   0
    29    28      0   0   0
    29    30      0   0   0
    29    53      0   0   0
    29    54      0   0   0
    29    29      0   0   1
    29    29      0   0  -1
    30     5      0   0   0
    30     6      0   0   0
    30    29      0   0   0
    30    31      0   0   0
    30    54      0   0   0
    30    55      0   0   0
    30    30      0   0   1
    30    30      0   0  -1
    31     6      0   0   0
    31     7      0   0   0
    31    30      0   0   0
    31    32      0   0   0
    31    55      0   0   0
    31    56      0   0   0
    31    31      0   0   1
    31    31      0   0  -1
    32     7      0   0   0
    32     8      0   0   0
    32    31      0   0   0
    32    33      0   0   0
    32    56      0   0   0
    32    57      0   0   0
    32    32      0   0   1
    32    32      0   0  -1
    33     8      0   0   0
    33     9      0   0   0
    33    32      0   0   0
    33    34      0   0   0
    33    57      0   0   0
    33    58      0   0   0
    33    33      0   0   1
    33    33      0   0  -1
    34     9      0   0   0
    34    10      0   0   0
    34    33      0   0   0
    34    35      0   0   0
    34    58      0   0   0
    34    59      0   0   0
    34    34      0   0   1
    34    34      0   0  -1
    35    10      0   0   0
    35    11      0   0   0
    35    34      0   0   0
    35    36      0   0   0
    35    59      0   0   0
    35    60      0   0   0
    35    35      0   0   1
    35    35      0   0  -1
    36    11      0   0   0
    36    12      0   0   0
    36    35      0   0   0
    36    37      0   0   0
    36    60      0   0   0
    36    61      0   0   0
    36    36      0   0   1
    36    36      0   0  -1
    37    12      0   0   0
    37    13      0   0   0
    37    36      0   0   0
    37    38      0   0   0
    37    61      0   0   0
    37    62      0   0   0
    37    37      0   0   1
    37    37      0   0  -1
    38    13      0   0   0
    38    14      0   0   0
    38    37      0   0   0
    38    39      0   0   0
    38    62      0   0   0
    38    63      0   0   0
    38    38      0   0   1
    38    38      0   0  -1
    39    14      0   0   0
    39    15      0   0   0
    39    38      0   0   0
    39    40      0   0   0
    39    63      0   0   0
    39    64      0   0   0
    39    39      0   0   1
    39    39      0   0  -1
    40    15      0   0   0
    40    16      0   0   0
    40    39      0   0   0
    40    41      0   0   0
    40    64      0   0   0
    40    65      0   0   0
    40    40      0   0   1
    40    40      0   0  -1
    41    16      0   0   0
    41    17      0   0   0
    41    40      0   0   0
    41    42      0   0   0
    41    65      0   0   0
    41    66      0   0   0
    41    41      0   0   1
    41    41      0   0  -1
    42    17      0   0   0
    42    18      0   0   0
    42    41      0   0   0
    42    43      0   0   0
    42    66      0   0   0
    42    67      0   0   0
    42    42      0   0   1
    42    42      0   0  -1
    43    18      0   0   0
    43    19      0   0   0
    43    42      0   0   0
    43    44      0   0   0
    43    67      0   0   0
    43    68      0   0   0
    43    43      0   0   1
    43    43      0   0  -1
    44    19      0   0   0
    44    20      0   0   0
    44    43      0   0   0
    44    45      0   0   0
    44    68      0   0   0
    44    69      0   0   0
    44    44      0   0   1
    44    44      0   0  -1
    45    20      0   0   0
    45    21      0   0   0
    45    44      0   0   0
    45    46      0   0   0
    45    69      0   0   0
    45    70      0   0   0
    45    45      0   0   1
    45    45      0   0  -1
    46    21      0   0   0
    46    22      0   0   0
    46    45      0   0   0
    46    47      0   0   0
    46    70      0   0   0
    46    71      0   0   0
    46    46      0   0   1
    46    46      0   0  -1
    47    22      0   0   0
    47    23      0   0   0
    47    46      0   0   0
    47    48      0   0   0
    47    71      0   0   0
    47    72      0   0   0
    47    47      0   0   1
    47    47      0   0  -1
    48    23      0   0   0
    48    24      0   0   0
    48    47      0   0   0
    48    49      0   0   0
    48    72      0   0   0
    48    73      0   0   0
    48    48      0   0   1
    48    48      0   0  -1
    49    24      0   0   0
    49    25      0   0   0
    49    48      0   0   0
    49    50      0   0   0
    49    73      0   0   0
    49    74      0   0   0
    49    49      0   0   1
    49    49      0   0  -1
    50    25      0   0   0
    50    49      0   0   0
    50    74      0   0   0
    50    75      0   0   0
    50     1      0   1   0
    50    26      0   1   0
    50    50      0   0   1
    50    50      0   0  -1
    51    26      0   0   0
    51    27      0   0   0
    51    52      0   0   0
    51    76      0   0   0
    51    75      0  -1   0
    51   100      0  -1   0
    51    51      0   0   1
    51    51      0   0  -1
    52    27      0   0   0
    52    28      0   0   0
    52    51      0   0   0
    52    53      0   0   0
    52    76      0   0   0
    52    77      0   0   0
    52    52      0   0   1
    52    52      0   0  -1
    53    28      0   0   0
    53    29      0   0   0
    53    52      0   0   0
    53    54      0   0   0
    53    77      0   0   0
    53    78      0   0   0
    53    53      0   0   1
    53    53      0   0  -1
    54    29      0   0   0
    54    30      0   0   0
    54    53      0   0   0
    54    55      0   0   0
    54    78      0   0   0
    54    79      0   0   0
    54    54      0   0   1
    54    54      0   0  -1
    55    30      0   0   0
    55    31      0   0   0
    55    54      0   0   0
    55    56      0   0   0
    55    79      0   0   0
    55    80      0   0   0
    55    55      0   0   1
    55    55      0   0  -1
    56    31      0   0   0
    56    32      0   0   0
    56    55      0   0   0
    56    57      0   0   0
    56    80      0   0   0
    56    81      0   0   0
    56    56      0   0   1
    56    56      0   0  -1
    57    32      0   0   0
    57    33      0   0   0
    57    56      0   0   0
    57    58      0   0   0
    57    81      0   0   0
    57    82      0   0   0
    57    57      0   0   1
    57    57      0   0  -1
    58    33      0   0   0
    58    34      0   0   0
    58    57      0   0   0
    58    59      0   0   0
    58    82      0   0   0
    58    83      0   0   0
    58    58      0   0   1
    58    58      0   0  -1
    59    34      0   0   0
    59    35      0   0   0
    59    58      0   0   0
    59    60      0   0   0
    59    83      0   0   0
    59    84      0   0   0
    59    59      0   0   1
    59    59      0   0  -1
    60    35      0   0   0
    60    36      0   0   0
    60    59      0   0   0
    60    61      0   0   0
    60    84      0   0   0
    60    85      0   0   0
    60    60      0   0   1
    60    60      0   0  -1
    61    36      0   0   0
    61    37      0   0   0
    61    60      0   0   0
    61    62      0   0   0
    61    85      0   0   0
    61    86      0   0   0
    61    61      0   0   1
    61    61      0   0  -1
    62    37      0   0   0
    62    38      0   0   0
    62    61      0   0   0
    62    63      0   0   0
    62    86      0   0   0
    62    87      0   0   0
    62    62      0   0   1
    62    62      0   0  -1
    63    38      0   0   0
    63    39      0   0   0
    63    62      0   0   0
    63    64      0   0   0
    63    87      0   0   0
    63    88      0   0   0
    63    63      0   0   1
    63    63      0   0  -1
    64    39      0   0   0
    64    40      0   0   0
    64    63      0   0   0
    64    65      0   0   0
    64    88      0   0   0
    64    89      0   0   0
    64    64      0   0   1
    64    64      0   0  -1
    65    40      0   0   0
    65    41      0   0   0
    65    64      0   0   0
    65    66      0   0   0
    65    89      0   0   0
    65    90      0   0   0
    65    65      0   0   1
    65    65      0   0  -1
    66    41      0   0   0
    66    42      0   0   0
    66    65      0   0   0
    66    67      0   0   0
    66    90      0   0   0
    66    91      0   0   0
    66    66      0   0   1
    66    66      0   0  -1
    67    42      0   0   0
    67    43      0   0   0
    67    66      0   0   0
    67    68      0   0   0
    67    91      0   0   0
    67    92      0   0   0
    67    67      0   0   1
    67    67      0   0  -1
    68    43      0   0   0
    68    44      0   0   0
    68    67      0   0   0
    68    69      0   0   0
    68    92      0   0   0
    68    93      0   0   0
    68    68      0   0   1
    68    68      0   0  -1
    69    44      0   0   0
    69    45      0   0   0
    69    68      0   0   0
    69    70      0   0   0
    69    93      0   0   0
    69    94      0   0   0
    69    69      0   0   1
    69    69      0   0  -1
    70    45      0   0   0
    70    46      0   0   0
    70    69      0   0   0
    70    71      0   0   0
    70    94      0   0   0
    70    95      0   0   0
    70    70      0   0   1
    70    70      0   0  -1
    71    46      0   0   0
    71    47      0   0   0
    71    70      0   0   0
    71    72      0   0   0
    71    95      0   0   0
    71    96      0   0   0
    71    71      0   0   1
    71    71      0   0  -1
    72    47      0   0   0
    72    48      0   0   0
    72    71      0   0   0
    72    73      0   0   0
    72    96      0   0   0
    72    97      0   0   0
    72    72      0   0   1
    72    72      0   0  -1
    73    48      0   0   0
    73    49      0   0   0
    73    72      0   0   0
    73    74      0   0   0
    73    97      0   0   0
    73    98      0   0   0
    73    73      0   0   1
    73    73      0   0  -1
    74    49      0   0   0
    74    50      0   0   0
    74    73      0   0   0
    74    75      0   0   0
    74    98      0   0   0
    74    99      0   0   0
    74    74      0   0   1
    74    74      0   0  -1
    75    50      0   0   0
    75    74      0   0   0
    75    99      0   0   0
    75   100      0   0   0
    75    26      0   1   0
    75    51      0   1   0
    75    75      0   0   1
    75    75      0   0  -1
    76    51      0   0   0
    76    52      0   0   0
    76    77      0   0   0
    76   101      0   0   0
    76   100      0  -1   0
    76   125      0  -1   0
    76    76      0   0   1
    76    76      0   0  -1
    77    52      0   0   0
    77    53      0   0   0
    77    76      0   0   0
    77    78      0   0   0
    77   101      0   0   0
    77   102      0   0   0
    77    77      0   0   1
    77    77      0   0  -1
    78    53      0   0   0
    78    54      0   0   0
    78    77      0   0   0
    78    79      0   0   0
    78   102      0   0   0
    78   103      0   0   0
    78    78      0   0   1
    78    78      0   0  -1
    79    54      0   0   0
    79    55      0   0   0
    79    78      0   0   0
    79    80      0   0   0
    79   103      0   0   0
    79   104      0   0   0
    79    79      0   0   1
    79    79      0   0  -1
    80    55      0   0   0
    80    56      0   0   0
    80    79      0   0   0
    80    81      0   0   0
    80   104      0   0   0
    80   105      0   0   0
    80    80      0   0   1
    80    80      0   0  -1
    81    56      0   0   0
    81    57      0   0   0
    81    80      0   0   0
    81    82      0   0   0
    81   105      0   0   0
    81   106      0   0   0
    81    81      0   0   1
    81    81      0   0  -1
    82    57      0   0   0
    82    58      0   0   0
    82    81      0   0   0
    82    83      0   0   0
    82   106      0   0   0
    82   107      0   0   0
    82    82      0   0   1
    82    82      0   0  -1
    83    58      0   0   0
    83    59      0   0   0
    83    82      0   0   0
    83    84      0   0   0
    83   107      0   0   0
    83   108      0   0   0
    83    83      0   0   1
    83    83      0   0  -1
    84    59      0   0   0
    84    60      0   0   0
    84    83      0   0   0
    84    85      0   0   0
    84   108      0   0   0
    84   109      0   0   0
    84    84      0   0   1
    84    84      0   0  -1
    85    60      0   0   0
    85    61      0   0   0
    85    84      0   0   0
    85    86      0   0   0
    85   109      0   0   0
    85   110      0   0   0
    85    85      0   0   1
    85    85      0   0  -1
    86    61      0   0   0
    86    62      0   0   0
    86    85      0   0   0
    86    87      0   0   0
    86   110      0   0   0
    86   111      0   0   0
    86    86      0   0   1
    86    86      0   0  -1
    87    62      0   0   0
    87    63      0   0   0
    87    86      0   0   0
    87    88      0   0   0
    87   111      0   0   0
    87   112      0   0   0
    87    87      0   0   1
    87    87      0   0  -1
    88    63      0   0   0
    88    64      0   0   0
    88    87      0   0   0
    88    89      0   0   0
    88   112      0   0   0
    88   113      0   0   0
    88    88      0   0   1
    88    88      0   0  -1
    89    64      0   0   0
    89    65      0   0   0
    89    88      0   0   0
    89    90      0   0   0
    89   113      0   0   0
    89   114      0   0   0
    89    89      0   0   1
    89    89      0   0  -1
    90    65      0   0   0
    90    66      0   0   0
    90    89      0   0   0
    90    91      0   0   0
    90   114      0   0   0
    90   115      0   0   0
    90    90      0   0   1
    90    90      0   0  -1
    91    66      0   0   0
    91    67      0   0   0
    91    90      0   0   0
    91    92      0   0   0
    91   115      0   0   0
    91   116      0   0   0
    91    91      0   0   1
    91    91      0   0  -1
    92    67      0   0   0
    92    68      0   0   0
    92    91      0   0   0
    92    93      0   0   0
    92   116      0   0   0
    92   117      0   0   0
    92    92      0   0   1
    92    92      0   0  -1
    93    68      0   0   0
    93    69      0   0   0
    93    92      0   0   0
    93    94      0   0   0
    93   117      0   0   0
    93   118      0   0   0
    93    93      0   0   1
    93    93      0   0  -1
    94    69      0   0   0
    94    70      0   0   0
    94    93      0   0   0
    94    95      0   0   0
    94   118      0   0   0
    94   119      0   0   0
    94    94      0   0   1
    94    94      0   0  -1
    95    70      0   0   0
    95    71      0   0   0
    95    94      0   0   0
    95    96      0   0   0
    95   119      0   0   0
    95   120      0   0   0
    95    95      0   0   1
    95    95      0   0  -1
    96    71      0   0   0
    96    72      0   0   0
    96    95      0   0   0
    96    97      0   0   0
    96   120      0   0   0
    96   121      0   0   0
    96    96      0   0   1
    96    96      0   0  -1
    97    72      0   0   0
    97    73      0   0   0
    97    96      0   0   0
    97    98      0   0   0
    97   121      0   0   0
    97   122      0   0   0
    97    97      0   0   1
    97    97      0   0  -1
    98    73      0   0   0
    98    74      0   0   0
    98    97      0   0   0
    98    99      0   0   0
    98   122      0   0   0
    98   123      0   0   0
    98    98      0   0   1
    98    98      0   0  -1
    99    74      0   0   0
    99    75      0   0   0
    99    98      0   0   0
    99   100      0   0   0
    99   123      0   0   0
    99   124      0   0   0
    99    99      0   0   1
    99    99      0   0  -1
   100    75      0   0   0
   100    99      0   0   0
   100   124      0   0   0
   100   125      0   0   0
   100    51      0   1   0
   100    76      0   1   0
   100   100      0   0   1
   100   100      0   0  -1
   101    76      0   0   0
   101    77      0   0   0
   101   102      0   0   0
   101   126      0   0   0
   101   125      0  -1   0
   101   150      0  -1   0
   101   101      0   0   1
   101   101      0   0  -1
   102    77      0   0   0
   102    78      0   0   0
   102   101      0   0   0
   102   103      0   0   0
   102   126      0   0   0
   102   127      0   0   0
   102   102      0   0   1
   102   102      0   0  -1
   103    78      0   0   0
   103    79      0   0   0
   103   102      0   0   0
   103   104      0   0   0
   103   127      0   0   0
   103   128      0   0   0
   103   103      0   0   1
   103   103      0   0  -1
   104    79      0   0   0
   104    80      0   0   0
   104   103      0   0   0
   104   105      0   0   0
   104   128      0   0   0
   104   129      0   0   0
   104   104      0   0   1
   104   104      0   0  -1
   105    80      0   0   0
   105    81      0   0   0
   105   104      0   0   0
   105   106      0   0   0
   105   129      0   0   0
   105   130      0   0   0
   105   105      0   0   1
   105   105      0   0  -1
   106    81      0   0   0
   106    82      0   0   0
   106   105      0   0   0
   106   107      0   0   0
   106   130      0   0   0
   106   131      0   0   0
   106   106      0   0   1
   106   106      0   0  -1
   107    82      0   0   0
   107    83      0   0   0
   107   106      0   0   0
   107   108      0   0   0
   107   131      0   0   0
   107   132      0   0   0
   107   107      0   0   1
   107   107      0   0  -1
   108    83      0   0   0
   108    84      0   0   0
   108   107      0   0   0
   108   109      0   0   0
   108   132      0   0   0
   108   133      0   0   0
   108   108      0   0   1
   108   108      0   0  -1
   109    84      0   0   0
   109    85      0   0   0
   109   108      0   0   0
   109   110      0   0   0
   109   133      0   0   0
   109   134      0   0   0
   109   109      0   0   1
   109   109      0   0  -1
   110    85      0   0   0
   110    86      0   0   0
   110   109      0   0   0
   110   111      0   0   0
   110   134      0   0   0
   110   135      0   0   0
   110   110      0   0   1
   110   110      0   0  -1
   111    86      0   0   0
   111    87      0   0   0
   111   110      0   0   0
   111   112      0   0   0
   111   135      0   0   0
   111   136      0   0   0
   111   111      0   0   1
   111   111      0   0  -1
   112    87      0   0   0
   112    88      0   0   0
   112   111      0   0   0
   112   113      0   0   0
   112   136      0   0   0
   112   137      0   0   0
   112   112      0   0   1
   112   112      0   0  -1
   113    88      0   0   0
   113    89      0   0   0
   113   112      0   0   0
   113   114      0   0   0
   113   137      0   0   0
   113   138      0   0   0
   113   113      0   0   1
   113   113      0   0  -1
   114    89      0   0   0
   114    90      0   0   0
   114   113      0   0   0
   114   115      0   0   0
   114   138      0   0   0
   114   139      0   0   0
   114   114      0   0   1
   114   114      0   0  -1
   115    90      0   0   0
   115    91      0   0   0
   115   114      0   0   0
   115   116      0   0   0
   115   139      0   0   0
   115   140      0   0   0
   115   115      0   0   1
   115   115      0   0  -1
   116    91      0   0   0
   116    92      0   0   0
   116   115      0   0   0
   116   117      0   0   0
   116   140      0   0   0
   116   141      0   0   0
   116   116      0   0   1
   116   116      0   0  -1
   117    92      0   0   0
   117    93      0   0   0
   117   116      0   0   0
   117   118      0   0   0
   117   141      0   0   0
   117   142      0   0   0
   117   117      0   0   1
   117   117      0   0  -1
   118    93      0   0   0
   118    94      0   0   0
   118   117      0   0   0
   118   119      0   0   0
   118   142      0   0   0
   118   143      0   0   0
   118   118      0   0   1
   118   118      0   0  -1
   119    94      0   0   0
   119    95      0   0   0
   119   118      0   0   0
   119   120      0   0   0
   119   143      0   0   0
   119   144      0   0   0
   119   119      0   0   1
   119   119      0   0  -1
   120    95      0   0   0
   120    96      0   0   0
   120   119      0   0   0
   120   121      0   0   0
   120   144      0   0   0
   120   145      0   0   0
   120   120      0   0   1
   120   120      0   0  -1
   121    96      0   0   0
   121    97      0   0   0
   121   120      0   0   0
   121   122      0   0   0
   121   145      0   0   0
   121   146      0   0   0
   121   121      0   0   1
   121   121      0   0  -1
   122    97      0   0   0
   122    98      0   0   0
   122   121      0   0   0
   122   123      0   0   0
   122   146      0   0   0
   122   147      0   0   0
   122   122      0   0   1
   122   122      0   0  -1
   123    98      0   0   0
   123    99      0   0   0
   123   122      0   0   0
   123   124      0   0   0
   123   147      0   0   0
   123   148      0   0   0
   123   123      0   0   1
   123   123      0   0  -1
   124    99      0   0   0
   124   100      0   0   0
   124   123      0   0   0
   124   125      0   0   0
   124   148      0   0   0
   124   149      0   0   0
   124   124      0   0   1
   124   124      0   0  -1
   125   100      0   0   0
   125   124      0   0   0
   125   149      0   0   0
   125   150      0   0   0
   125    76      0   1   0
   125   101      0   1   0
   125   125      0   0   1
   125   125      0   0  -1
   126   101      0   0   0
   126   102      0   0   0
   126   127      0   0   0
   126   151      0   0   0
   126   150      0  -1   0
   126   175      0  -1   0
   126   126      0   0   1
   126   126      0   0  -1
   127   102      0   0   0
   127   103      0   0   0
   127   126      0   0   0
   127   128      0   0   0
   127   151      0   0   0
   127   152      0   0   0
   127   127      0   0   1
   127   127      0   0  -1
   128   103      0   0   0
   128   104      0   0   0
   128   127      0   0   0
   128   129      0   0   0
   128   152      0   0   0
   128   153      0   0   0
   128   128      0   0   1
   128   128      0   0  -1
   129   104      0   0   0
   129   105      0   0   0
   129   128      0   0   0
   129   130      0   0   0
   129   153      0   0   0
   129   154      0   0   0
   129   129      0   0   1
   129   129      0   0  -1
   130   105      0   0   0
   130   106      0   0   0
   130   129      0   0   0
   130   131      0   0   0
   130   154      0   0   0
   130   155      0   0   0
   130   130      0   0   1
   130   130      0   0  -1
   131   106      0   0   0
   131   107      0   0   0
   131   130      0   0   0
   131   132      0   0   0
   131   155      0   0   0
   131   156      0   0   0
   131   131      0   0   1
   131   131      0   0  -1
   132   107      0   0   0
   132   108      0   0   0
   132   131      0   0   0
   132   133      0   0   0
   132   156      0   0   0
   132   157      0   0   0
   132   132      0   0   1
   132   132      0   0  -1
   133   108      0   0   0
   133   109      0   0   0
   133   132      0   0   0
   133   134      0   0   0
   133   157      0   0   0
   133   158      0   0   0
   133   133      0   0   1
   133   133      0   0  -1
   134   109      0   0   0
   134   110      0   0   0
   134   133      0   0   0
   134   135      0   0   0
   134   158      0   0   0
   134   159      0   0   0
   134   134      0   0   1
   134   134      0   0  -1
   135   110      0   0   0
   135   111      0   0   0
   135   134      0   0   0
   135   136      0   0   0
   135   159      0   0   0
   135   160      0   0   0
   135   135      0   0   1
   135   135      0   0  -1
   136   111      0   0   0
   136   112      0   0   0
   136   135      0   0   0
   136   137      0   0   0
   136   160      0   0   0
   136   161      0   0   0
   136   136      0   0   1
   136   136      0   0  -1
   137   112      0   0   0
   137   113      0   0   0
   137   136      0   0   0
   137   138      0   0   0
   137   161      0   0   0
   137   162      0   0   0
   137   137      0   0   1
   137   137      0   0  -1
   138   113      0   0   0
   138   114      0   0   0
   138   137      0   0   0
   138   139      0   0   0
   138   162      0   0   0
   138   163      0   0   0
   138   138      0   0   1
   138   138      0   0  -1
   139   114      0   0   0
   139   115      0   0   0
   139   138      0   0   0
   139   140      0   0   0
   139   163      0   0   0
   139   164      0   0   0
   139   139      0   0   1
   139   139      0   0  -1
   140   115      0   0   0
   140   116      0   0   0
   140   139      0   0   0
   140   141      0   0   0
   140   164      0   0   0
   140   165      0   0   0
   140   140      0   0   1
   140   140      0   0  -1
   141   116      0   0   0
   141   117      0   0   0
   141   140      0   0   0
   141   142      0   0   0
   141   165      0   0   0
   141   166      0   0   0
   141   141      0   0   1
   141   141      0   0  -1
   142   117      0   0   0
   142   118      0   0   0
   142   141      0   0   0
   142   143      0   0   0
   142   166      0   0   0
   142   167      0   0   0
   142   142      0   0   1
   142   142      0   0  -1
   143   118      0   0   0
   143   119      0   0   0
   143   142      0   0   0
   143   144      0   0   0
   143   167      0   0   0
   143   168      0   0   0
   143   143      0   0   1
   143   143      0   0  -1
   144   119      0   0   0
   144   120      0   0   0
   144   143      0   0   0
   144   145      0   0   0
   144   168      0   0   0
   144   169      0   0   0
   144   144      0   0   1
   144   144      0   0  -1
   145   120      0   0   0
   145   121      0   0   0
   145   144      0   0   0
   145   146      0   0   0
   145   169      0   0   0
   145   170      0   0   0
   145   145      0   0   1
   145   145      0   0  -1
   146   121      0   0   0
   146   122      0   0   0
   146   145      0   0   0
   146   147      0   0   0
   146   170      0   0   0
   146   171      0   0   0
   146   146      0   0   1
   146   146      0   0  -1
   147   122      0   0   0
   147   123      0   0   0
   147   146      0   0   0
   147   148      0   0   0
   147   171      0   0   0
   147   172      0   0   0
   147   147      0   0   1
   147   147      0   0  -1
   148   123      0   0   0
   148   124      0   0   0
   148   147      0   0   0
   148   149      0   0   0
   148   172      0   0   0
   148   173      0   0   0
   148   148      0   0   1
   148   148      0   0  -1
   149   124      0   0   0
   149   125      0   0   0
   149   148      0   0   0
   149   150      0   0   0
   149   173      0   0   0
   149   174      0   0   0
   149   149      0   0   1
   149   149      0   0  -1
   150   125      0   0   0
   150   149      0   0   0
   150   174      0   0   0
   150   175      0   0   0
   150   101      0   1   0
   150   126      0   1   0
   150   150      0   0   1
   150   150      0   0  -1
   151   126      0   0   0
   151   127      0   0   0
   151   152      0   0   0
   151   176      0   0   0
   151   175      0  -1   0
   151   200      0  -1   0
   151   151      0   0   1
   151   151      0   0  -1
   152   127      0   0   0
   152   128      0   0   0
   152   151      0   0   0
   152   153      0   0   0
   152   176      0   0   0
   152   177      0   0   0
   152   152      0   0   1
   152   152      0   0  -1
   153   128      0   0   0
   153   129      0   0   0
   153   152      0   0   0
   153   154      0   0   0
   153   177      0   0   0
   153   178      0   0   0
   153   153      0   0   1
   153   153      0   0  -1
   154   129      0   0   0
   154   130      0   0   0
   154   153      0   0   0
   154   155      0   0   0
   154   178      0   0   0
   154   179      0   0   0
   154   154      0   0   1
   154   154      0   0  -1
   155   130      0   0   0
   155   131      0   0   0
   155   154      0   0   0
   155   156      0   0   0
   155   179      0   0   0
   155   180      0   0   0
   155   155      0   0   1
   155   155      0   0  -1
   156   131      0   0   0
   156   132      0   0   0
   156   155      0   0   0
   156   157      0   0   0
   156   180      0   0   0
   156   181      0   0   0
   156   156      0   0   1
   156   156      0   0  -1
   157   132      0   0   0
   157   133      0   0   0
   157   156      0   0   0
   157   158      0   0   0
   157   181      0   0   0
   157   182      0   0   0
   157   157      0   0   1
   157   157      0   0  -1
   158   133      0   0   0
   158   134      0   0   0
   158   157      0   0   0
   158   159      0   0   0
   158   182      0   0   0
   158   183      0   0   0
   158   158      0   0   1
   158   158      0   0  -1
   159   134      0   0   0
   159   135      0   0   0
   159   158      0   0   0
   159   160      0   0   0
   159   183      0   0   0
   159   184      0   0   0
   159   159      0   0   1
   159   159      0   0  -1
   160   135      0   0   0
   160   136      0   0   0
   160   159      0   0   0
   160   161      0   0   0
   160   184      0   0   0
   160   185      0   0   0
   160   160      0   0   1
   160   160      0   0  -1
   161   136      0   0   0
   161   137      0   0   0
   161   160      0   0   0
   161   162      0   0   0
   161   185      0   0   0
   161   186      0   0   0
   161   161      0   0   1
   161   161      0   0  -1
   162   137      0   0   0
   162   138      0   0   0
   162   161      0   0   0
   162   163      0   0   0
   162   186      0   0   0
   162   187      0   0   0
   162   162      0   0   1
   162   162      0   0  -1
   163   138      0   0   0
   163   139      0   0   0
   163   162      0   0   0
   163   164      0   0   0
   163   187      0   0   0
   163   188      0   0   0
   163   163      0   0   1
   163   163      0   0  -1
   164   139      0   0   0
   164   140      0   0   0
   164   163      0   0   0
   164   165      0   0   0
   164   188      0   0   0
   164   189      0   0   0
   164   164      0   0   1
   164   164      0   0  -1
   165   140      0   0   0
   165   141      0   0   0
   165   164      0   0   0
   165   166      0   0   0
   165   189      0   0   0
   165   190      0   0   0
   165   165      0   0   1
   165   165      0   0  -1
   166   141      0   0   0
   166   142      0   0   0
   166   165      0   0   0
   166   167      0   0   0
   166   190      0   0   0
   166   191      0   0   0
   166   166      0   0   1
   166   166      0   0  -1
   167   142      0   0   0
   167   143      0   0   0
   167   166      0   0   0
   167   168      0   0   0
   167   191      0   0   0
   167   192      0   0   0
   167   167      0   0   1
   167   167      0   0  -1
   168   143      0   0   0
   168   144      0   0   0
   168   167      0   0   0
   168   169      0   0   0
   168   192      0   0   0
   168   193      0   0   0
   168   168      0   0   1
   168   168      0   0  -1
   169   144      0   0   0
   169   145      0   0   0
   169   168      0   0   0
   169   170      0   0   0
   169   193      0   0   0
   169   194      0   0   0
   169   169      0   0   1
   169   169      0   0  -1
   170   145      0   0   0
   170   146      0   0   0
   170   169      0   0   0
   170   171      0   0   0
   170   194      0   0   0
   170   195      0   0   0
   170   170      0   0   1
   170   170      0   0  -1
   171   146      0   0   0
   171   147      0   0   0
   171   170      0   0   0
   171   172      0   0   0
   171   195      0   0   0
   171   196      0   0   0
   171   171      0   0   1
   171   171      0   0  -1
   172   147      0   0   0
   172   148      0   0   0
   172   171      0   0   0
   172   173      0   0   0
   172   196      0   0   0
   172   197      0   0   0
   172   172      0   0   1
   172   172      0   0  -1
   173   148      0   0   0
   173   149      0   0   0
   173   172      0   0   0
   173   174      0   0   0
   173   197      0   0   0
   173   198      0   0   0
   173   173      0   0   1
   173   173      0   0  -1
   174   149      0   0   0
   174   150      0   0   0
   174   173      0   0   0
   174   175      0   0   0
   174   198      0   0   0
   174   199      0   0   0
   174   174      0   0   1
   174   174      0   0  -1
   175   150      0   0   0
   175   174      0   0   0
   175   199      0   0   0
   175   200      0   0   0
   175   126      0   1   0
   175   151      0   1   0
   175   175      0   0   1
   175   175      0   0  -1
   176   151      0   0   0
   176   152      0   0   0
   176   177      0   0   0
   176   201      0   0   0
   176   200      0  -1   0
   176   225      0  -1   0
   176   176      0   0   1
   176   176      0   0  -1
   177   152      0   0   0
   177   153      0   0   0
   177   176      0   0   0
   177   178      0   0   0
   177   201      0   0   0
   177   202      0   0   0
   177   177      0   0   1
   177   177      0   0  -1
   178   153      0   0   0
   178   154      0   0   0
   178   177      0   0   0
   178   179      0   0   0
   178   202      0   0   0
   178   203      0   0   0
   178   178      0   0   1
   178   178      0   0  -1
   179   154      0   0   0
   179   155      0   0   0
   179   178      0   0   0
   179   180      0   0   0
   179   203      0   0   0
   179   204      0   0   0
   179   179      0   0   1
   179   179      0   0  -1
   180   155      0   0   0
   180   156      0   0   0
   180   179      0   0   0
   180   181      0   0   0
   180   204      0   0   0
   180   205      0   0   0
   180   180      0   0   1
   180   180      0   0  -1
   181   156      0   0   0
   181   157      0   0   0
   181   180      0   0   0
   181   182      0   0   0
   181   205      0   0   0
   181   206      0   0   0
   181   181      0   0   1
   181   181      0   0  -1
   182   157      0   0   0
   182   158      0   0   0
   182   181      0   0   0
   182   183      0   0   0
   182   206      0   0   0
   182   207      0   0   0
   182   182      0   0   1
   182   182      0   0  -1
   183   158      0   0   0
   183   159      0   0   0
   183   182      0   0   0
   183   184      0   0   0
   183   207      0   0   0
   183   208      0   0   0
   183   183      0   0   1
   183   183      0   0  -1
   184   159      0   0   0
   184   160      0   0   0
   184   183      0   0   0
   184   185      0   0   0
   184   208      0   0   0
   184   209      0   0   0
   184   184      0   0   1
   184   184      0   0  -1
   185   160      0   0   0
   185   161      0   0   0
   185   184      0   0   0
   185   186      0   0   0
   185   209      0   0   0
   185   210      0   0   0
   185   185      0   0   1
   185   185      0   0  -1
   186   161      0   0   0
   186   162      0   0   0
   186   185      0   0   0
   186   187      0   0   0
   186   210      0   0   0
   186   211      0   0   0
   186   186      0   0   1
   186   186      0   0  -1
   187   162      0   0   0
   187   163      0   0   0
   187   186      0   0   0
   187   188      0   0   0
   187   211      0   0   0
   187   212      0   0   0
   187   187      0   0   1
   187   187      0   0  -1
   188   163      0   0   0
   188   164      0   0   0
   188   187      0   0   0
   188   189      0   0   0
   188   212      0   0   0
   188   213      0   0   0
   188   188      0   0   1
   188   188      0   0  -1
   189   164      0   0   0
   189   165      0   0   0
   189   188      0   0   0
   189   190      0   0   0
   189   213      0   0   0
   189   214      0   0   0
   189   189      0   0   1
   189   189      0   0  -1
   190   165      0   0   0
   190   166      0   0   0
   190   189      0   0   0
   190   191      0   0   0
   190   214      0   0   0
   190   215      0   0   0
   190   190      0   0   1
   190   190      0   0  -1
   191   166      0   0   0
   191   167      0   0   0
   191   190      0   0   0
   191   192      0   0   0
   191   215      0   0   0
   191   216      0   0   0
   191   191      0   0   1
   191   191      0   0  -1
   192   167      0   0   0
   192   168      0   0   0
   192   191      0   0   0
   192   193      0   0   0
   192   216      0   0   0
   192   217      0   0   0
   192   192      0   0   1
   192   192      0   0  -1
   193   168      0   0   0
   193   169      0   0   0
   193   192      0   0   0
   193   194      0   0   0
   193   217      0   0   0
   193   218      0   0   0
   193   193      0   0   1
   193   193      0   0  -1
   194   169      0   0   0
   194   170      0   0   0
   194   193      0   0   0
   194   195      0   0   0
   194   218      0   0   0
   194   219      0   0   0
   194   194      0   0   1
   194   194      0   0  -1
   195   170      0   0   0
   195   171      0   0   0
   195   194      0   0   0
   195   196      0   0   0
   195   219      0   0   0
   195   220      0   0   0
   195   195      0   0   1
   195   195      0   0  -1
   196   171      0   0   0
   196   172      0   0   0
   196   195      0   0   0
   196   197      0   0   0
   196   220      0   0   0
   196   221      0   0   0
   196   196      0   0   1
   196   196      0   0  -1
   197   172      0   0   0
   197   173      0   0   0
   197   196      0   0   0
   197   198      0   0   0
   197   221      0   0   0
   197   222      0   0   0
   197   197      0   0   1
   197   197      0   0  -1
   198   173      0   0   0
   198   174      0   0   0
   198   197      0   0   0
   198   199      0   0   0
   198   222      0   0   0
   198   223      0   0   0
   198   198      0   0   1
   198   198      0   0  -1
   199   174      0   0   0
   199   175      0   0   0
   199   198      0   0   0
   199   200      0   0   0
   199   223      0   0   0
   199   224      0   0   0
   199   199      0   0   1
   199   199      0   0  -1
   200   175      0   0   0
   200   199      0   0   0
   200   224      0   0   0
   200   225      0   0   0
   200   151      0   1   0
   200   176      0   1   0
   200   200      0   0   1
   200   200      0   0  -1
   201   176      0   0   0
   201   177      0   0   0
   201   202      0   0   0
   201   226      0   0   0
   201   225      0  -1   0
   201   250      0  -1   0
   201   201      0   0   1
   201   201      0   0  -1
   202   177      0   0   0
   202   178      0   0   0
   202   201      0   0   0
   202   203      0   0   0
   202   226      0   0   0
   202   227      0   0   0
   202   202      0   0   1
   202   202      0   0  -1
   203   178      0   0   0
   203   179      0   0   0
   203   202      0   0   0
   203   204      0   0   0
   203   227      0   0   0
   203   228      0   0   0
   203   203      0   0   1
   203   203      0   0  -1
   204   179      0   0   0
   204   180      0   0   0
   204   203      0   0   0
   204   205      0   0   0
   204   228      0   0   0
   204   229      0   0   0
   204   204      0   0   1
   204   204      0   0  -1
   205   180      0   0   0
   205   181      0   0   0
   205   204      0   0   0
   205   206      0   0   0
   205   229      0   0   0
   205   230      0   0   0
   205   205      0   0   1
   205   205      0   0  -1
   206   181      0   0   0
   206   182      0   0   0
   206   205      0   0   0
   206   207      0   0   0
   206   230      0   0   0
   206   231      0   0   0
   206   206      0   0   1
   206   206      0   0  -1
   207   182      0   0   0
   207   183      0   0   0
   207   206      0   0   0
   207   208      0   0   0
   207   231      0   0   0
   207   232      0   0   0
   207   207      0   0   1
   207   207      0   0  -1
   208   183      0   0   0
   208   184      0   0   0
   208   207      0   0   0
   208   209      0   0   0
   208   232      0   0   0
   208   233      0   0   0
   208   208      0   0   1
   208   208      0   0  -1
   209   184      0   0   0
   209   185      0   0   0
   209   208      0   0   0
   209   210      0   0   0
   209   233      0   0   0
   209   234      0   0   0
   209   209      0   0   1
   209   209      0   0  -1
   210   185      0   0   0
   210   186      0   0   0
   210   209      0   0   0
   210   211      0   0   0
   210   234      0   0   0
   210   235      0   0   0
   210   210      0   0   1
   210   210      0   0  -1
   211   186      0   0   0
   211   187      0   0   0
   211   210      0   0   0
   211   212      0   0   0
   211   235      0   0   0
   211   236      0   0   0
   211   211      0   0   1
   211   211      0   0  -1
   212   187      0   0   0
   212   188      0   0   0
   212   211      0   0   0
   212   213      0   0   0
   212   236      0   0   0
   212   237      0   0   0
   212   212      0   0   1
   212   212      0   0  -1
   213   188      0   0   0
   213   189      0   0   0
   213   212      0   0   0
   213   214      0   0   0
   213   237      0   0   0
   213   238      0   0   0
   213   213      0   0   1
   213   213      0   0  -1
   214   189      0   0   0
   214   190      0   0   0
   214   213      0   0   0
   214   215      0   0   0
   214   238      0   0   0
   214   239      0   0   0
   214   214      0   0   1
   214   214      0   0  -1
   215   190      0   0   0
   215   191      0   0   0
   215   214      0   0   0
   215   216      0   0   0
   215   239      0   0   0
   215   240      0   0   0
   215   215      0   0   1
   215   215      0   0  -1
   216   191      0   0   0
   216   192      0   0   0
   216   215      0   0   0
   216   217      0   0   0
   216   240      0   0   0
   216   241      0   0   0
   216   216      0   0   1
   216   216      0   0  -1
   217   192      0   0   0
   217   193      0   0   0
   217   216      0   0   0
   217   218      0   0   0
   217   241      0   0   0
   217   242      0   0   0
   217   217      0   0   1
   217   217      0   0  -1
   218   193      0   0   0
   218   194      0   0   0
   218   217      0   0   0
   218   219      0   0   0
   218   242      0   0   0
   218   243      0   0   0
   218   218      0   0   1
   218   218      0   0  -1
   219   194      0   0   0
   219   195      0   0   0
   219   218      0   0   0
   219   220      0   0   0
   219   243      0   0   0
   219   244      0   0   0
   219   219      0   0   1
   219   219      0   0  -1
   220   195      0   0   0
   220   196      0   0   0
   220   219      0   0   0
   220   221      0   0   0
   220   244      0   0   0
   220   245      0   0   0
   220   220      0   0   1
   220   220      0   0  -1
   221   196      0   0   0
   221   197      0   0   0
   221   220      0   0   0
   221   222      0   0   0
   221   245      0   0   0
   221   246      0   0   0
   221   221      0   0   1
   221   221      0   0  -1
   222   197      0   0   0
   222   198      0   0   0
   222   221      0   0   0
   222   223      0   0   0
   222   246      0   0   0
   222   247      0   0   0
   222   222      0   0   1
   222   222      0   0  -1
   223   198      0   0   0
   223   199      0   0   0
   223   222      0   0   0
   223   224      0   0   0
   223   247      0   0   0
   223   248      0   0   0
   223   223      0   0   1
   223   223      0   0  -1
   224   199      0   0   0
   224   200      0   0   0
   224   223      0   0   0
   224   225      0   0   0
   224   248      0   0   0
   224   249      0   0   0
   224   224      0   0   1
   224   224      0   0  -1
   225   200      0   0   0
   225   224      0   0   0
   225   249      0   0   0
   225   250      0   0   0
   225   176      0   1   0
   225   201      0   1   0
   225   225      0   0   1
   225   225      0   0  -1
   226   201      0   0   0
   226   202      0   0   0
   226   227      0   0   0
   226   251      0   0   0
   226   250      0  -1   0
   226   275      0  -1   0
   226   226      0   0   1
   226   226      0   0  -1
   227   202      0   0   0
   227   203      0   0   0
   227   226      0   0   0
   227   228      0   0   0
   227   251      0   0   0
   227   252      0   0   0
   227   227      0   0   1
   227   227      0   0  -1
   228   203      0   0   0
   228   204      0   0   0
   228   227      0   0   0
   228   229      0   0   0
   228   252      0   0   0
   228   253      0   0   0
   228   228      0   0   1
   228   228      0   0  -1
   229   204      0   0   0
   229   205      0   0   0
   229   228      0   0   0
   229   230      0   0   0
   229   253      0   0   0
   229   254      0   0   0
   229   229      0   0   1
   229   229      0   0  -1
[...]
   537   512      0   0   0
   537   513      0   0   0
   537   536      0   0   0
   537   538      0   0   0
   537   561      0   0   0
   537   562      0   0   0
   537   537      0   0   1
   537   537      0   0  -1
   538   513      0   0   0
   538   514      0   0   0
   538   537      0   0   0
   538   539      0   0   0
   538   562      0   0   0
   538   563      0   0   0
   538   538      0   0   1
   538   538      0   0  -1
   539   514      0   0   0
   539   515      0   0   0
   539   538      0   0   0
   539   540      0   0   0
   539   563      0   0   0
   539   564      0   0   0
   539   539      0   0   1
   539   539      0   0  -1
   540   515      0   0   0
   540   516      0   0   0
   540   539      0   0   0
   540   541      0   0   0
   540   564      0   0   0
   540   565      0   0   0
   540   540      0   0   1
   540   540      0   0  -1
   541   516      0   0   0
   541   517      0   0   0
   541   540      0   0   0
   541   542      0   0   0
   541   565      0   0   0
   541   566      0   0   0
   541   541      0   0   1
   541   541      0   0  -1
   542   517      0   0   0
   542   518      0   0   0
   542   541      0   0   0
   542   543      0   0   0
   542   566      0   0   0
   542   567      0   0   0
   542   542      0   0   1
   542   542      0   0  -1
   543   518      0   0   0
   543   519      0   0   0
   543   542      0   0   0
   543   544      0   0   0
   543   567      0   0   0
   543   568      0   0   0
   543   543      0   0   1
   543   543      0   0  -1
   544   519      0   0   0
   544   520      0   0   0
   544   543      0   0   0
   544   545      0   0   0
   544   568      0   0   0
   544   569      0   0   0
   544   544      0   0   1
   544   544      0   0  -1
   545   520      0   0   0
   545   521      0   0   0
   545   544      0   0   0
   545   546      0   0   0
   545   569      0   0   0
   545   570      0   0   0
   545   545      0   0   1
   545   545      0   0  -1
   546   521      0   0   0
   546   522      0   0   0
   546   545      0   0   0
   546   547      0   0   0
   546   570      0   0   0
   546   571      0   0   0
   546   546      0   0   1
   546   546      0   0  -1
   547   522      0   0   0
   547   523      0   0   0
   547   546      0   0   0
   547   548      0   0   0
   547   571      0   0   0
   547   572      0   0   0
   547   547      0   0   1
   547   547      0   0  -1
   548   523      0   0   0
   548   524      0   0   0
   548   547      0   0   0
   548   549      0   0   0
   548   572      0   0   0
   548   573      0   0   0
   548   548      0   0   1
   548   548      0   0  -1
   549   524      0   0   0
   549   525      0   0   0
   549   548      0   0   0
   549   550      0   0   0
   549   573      0   0   0
   549   574      0   0   0
   549   549      0   0   1
   549   549      0   0  -1
   550   525      0   0   0
   550   549      0   0   0
   550   574      0   0   0
   550   575      0   0   0
   550   501      0   1   0
   550   526      0   1   0
   550   550      0   0   1
   550   550      0   0  -1
   551   526      0   0   0
   551   527      0   0   0
   551   552      0   0   0
   551   576      0   0   0
   551   575      0  -1   0
   551   600      0  -1   0
   551   551      0   0   1
   551   551      0   0  -1
   552   527      0   0   0
   552   528      0   0   0
   552   551      0   0   0
   552   553      0   0   0
   552   576      0   0   0
   552   577      0   0   0
   552   552      0   0   1
   552   552      0   0  -1
   553   528      0   0   0
   553   529      0   0   0
   553   552      0   0   0
   553   554      0   0   0
   553   577      0   0   0
   553   578      0   0   0
   553   553      0   0   1
   553   553      0   0  -1
   554   529      0   0   0
   554   530      0   0   0
   554   553      0   0   0
   554   555      0   0   0
   554   578      0   0   0
   554   579      0   0   0
   554   554      0   0   1
   554   554      0   0  -1
   555   530      0   0   0
   555   531      0   0   0
   555   554      0   0   0
   555   556      0   0   0
   555   579      0   0   0
   555   580      0   0   0
   555   555      0   0   1
   555   555      0   0  -1
   556   531      0   0   0
   556   532      0   0   0
   556   555      0   0   0
   556   557      0   0   0
   556   580      0   0   0
   556   581      0   0   0
   556   556      0   0   1
   556   556      0   0  -1
   557   532      0   0   0
   557   533      0   0   0
   557   556      0   0   0
   557   558      0   0   0
   557   581      0   0   0
   557   582      0   0   0
   557   557      0   0   1
   557   557      0   0  -1
   558   533      0   0   0
   558   534      0   0   0
   558   557      0   0   0
   558   559      0   0   0
   558   582      0   0   0
   558   583      0   0   0
   558   558      0   0   1
   558   558      0   0  -1
   559   534      0   0   0
   559   535      0   0   0
   559   558      0   0   0
   559   560      0   0   0
   559   583      0   0   0
   559   584      0   0   0
   559   559      0   0   1
   559   559      0   0  -1
   560   535      0   0   0
   560   536      0   0   0
   560   559      0   0   0
   560   561      0   0   0
   560   584      0   0   0
   560   585      0   0   0
   560   560      0   0   1
   560   560      0   0  -1
   561   536      0   0   0
   561   537      0   0   0
   561   560      0   0   0
   561   562      0   0   0
   561   585      0   0   0
   561   586      0   0   0
   561   561      0   0   1
   561   561      0   0  -1
   562   537      0   0   0
   562   538      0   0   0
   562   561      0   0   0
   562   563      0   0   0
   562   586      0   0   0
   562   587      0   0   0
   562   562      0   0   1
   562   562      0   0  -1
   563   538      0   0   0
   563   539      0   0   0
   563   562      0   0   0
   563   564      0   0   0
   563   587      0   0   0
   563   588      0   0   0
   563   563      0   0   1
   563   563      0   0  -1
   564   539      0   0   0
   564   540      0   0   0
   564   563      0   0   0
   564   565      0   0   0
   564   588      0   0   0
   564   589      0   0   0
   564   564      0   0   1
   564   564      0   0  -1
   565   540      0   0   0
   565   541      0   0   0
   565   564      0   0   0
   565   566      0   0   0
   565   589      0   0   0
   565   590      0   0   0
   565   565      0   0   1
   565   565      0   0  -1
   566   541      0   0   0
   566   542      0   0   0
   566   565      0   0   0
   566   567      0   0   0
   566   590      0   0   0
   566   591      0   0   0
   566   566      0   0   1
   566   566      0   0  -1
   567   542      0   0   0
   567   543      0   0   0
   567   566      0   0   0
   567   568      0   0   0
   567   591      0   0   0
   567   592      0   0   0
   567   567      0   0   1
   567   567      0   0  -1
   568   543      0   0   0
   568   544      0   0   0
   568   567      0   0   0
   568   569      0   0   0
   568   592      0   0   0
   568   593      0   0   0
   568   568      0   0   1
   568   568      0   0  -1
   569   544      0   0   0
   569   545      0   0   0
   569   568      0   0   0
   569   570      0   0   0
   569   593      0   0   0
   569   594      0   0   0
   569   569      0   0   1
   569   569      0   0  -1
   570   545      0   0   0
   570   546      0   0   0
   570   569      0   0   0
   570   571      0   0   0
   570   594      0   0   0
   570   595      0   0   0
   570   570      0   0   1
   570   570      0   0  -1
   571   546      0   0   0
   571   547      0   0   0
   571   570      0   0   0
   571   572      0   0   0
   571   595      0   0   0
   571   596      0   0   0
   571   571      0   0   1
   571   571      0   0  -1
   572   547      0   0   0
   572   548      0   0   0
   572   571      0   0   0
   572   573      0   0   0
   572   596      0   0   0
   572   597      0   0   0
   572   572      0   0   1
   572   572      0   0  -1
   573   548      0   0   0
   573   549      0   0   0
   573   572      0   0   0
   573   574      0   0   0
   573   597      0   0   0
   573   598      0   0   0
   573   573      0   0   1
   573   573      0   0  -1
   574   549      0   0   0
   574   550      0   0   0
   574   573      0   0   0
   574   575      0   0   0
   574   598      0   0   0
   574   599      0   0   0
   574   574      0   0   1
   574   574      0   0  -1
   575   550      0   0   0
   575   574      0   0   0
   575   599      0   0   0
   575   600      0   0   0
   575   526      0   1   0
   575   551      0   1   0
   575   575      0   0   1
   575   575      0   0  -1
   576   551      0   0   0
   576   552      0   0   0
   576   577      0   0   0
   576   601      0   0   0
   576   600      0  -1   0
   576   625      0  -1   0
   576   576      0   0   1
   576   576      0   0  -1
   577   552      0   0   0
   577   553      0   0   0
   577   576      0   0   0
   577   578      0   0   0
   577   601      0   0   0
   577   602      0   0   0
   577   577      0   0   1
   577   577      0   0  -1
   578   553      0   0   0
   578   554      0   0   0
   578   577      0   0   0
   578   579      0   0   0
   578   602      0   0   0
   578   603      0   0   0
   578   578      0   0   1
   578   578      0   0  -1
   579   554      0   0   0
   579   555      0   0   0
   579   578      0   0   0
   579   580      0   0   0
   579   603      0   0   0
   579   604      0   0   0
   579   579      0   0   1
   579   579      0   0  -1
   580   555      0   0   0
   580   556      0   0   0
   580   579      0   0   0
   580   581      0   0   0
   580   604      0   0   0
   580   605      0   0   0
   580   580      0   0   1
   580   580      0   0  -1
   581   556      0   0   0
   581   557      0   0   0
   581   580      0   0   0
   581   582      0   0   0
   581   605      0   0   0
   581   606      0   0   0
   581   581      0   0   1
   581   581      0   0  -1
   582   557      0   0   0
   582   558      0   0   0
   582   581      0   0   0
   582   583      0   0   0
   582   606      0   0   0
   582   607      0   0   0
   582   582      0   0   1
   582   582      0   0  -1
   583   558      0   0   0
   583   559      0   0   0
   583   582      0   0   0
   583   584      0   0   0
   583   607      0   0   0
   583   608      0   0   0
   583   583      0   0   1
   583   583      0   0  -1
   584   559      0   0   0
   584   560      0   0   0
   584   583      0   0   0
   584   585      0   0   0
   584   608      0   0   0
   584   609      0   0   0
   584   584      0   0   1
   584   584      0   0  -1
   585   560      0   0   0
   585   561      0   0   0
   585   584      0   0   0
   585   586      0   0   0
   585   609      0   0   0
   585   610      0   0   0
   585   585      0   0   1
   585   585      0   0  -1
   586   561      0   0   0
   586   562      0   0   0
   586   585      0   0   0
   586   587      0   0   0
   586   610      0   0   0
   586   611      0   0   0
   586   586      0   0   1
   586   586      0   0  -1
   587   562      0   0   0
   587   563      0   0   0
   587   586      0   0   0
   587   588      0   0   0
   587   611      0   0   0
   587   612      0   0   0
   587   587      0   0   1
   587   587      0   0  -1
   588   563      0   0   0
   588   564      0   0   0
   588   587      0   0   0
   588   589      0   0   0
   588   612      0   0   0
   588   613      0   0   0
   588   588      0   0   1
   588   588      0   0  -1
   589   564      0   0   0
   589   565      0   0   0
   589   588      0   0   0
   589   590      0   0   0
   589   613      0   0   0
   589   614      0   0   0
   589   589      0   0   1
   589   589      0   0  -1
   590   565      0   0   0
   590   566      0   0   0
   590   589      0   0   0
   590   591      0   0   0
   590   614      0   0   0
   590   615      0   0   0
   590   590      0   0   1
   590   590      0   0  -1
   591   566      0   0   0
   591   567      0   0   0
   591   590      0   0   0
   591   592      0   0   0
   591   615      0   0   0
   591   616      0   0   0
   591   591      0   0   1
   591   591      0   0  -1
   592   567      0   0   0
   592   568      0   0   0
   592   591      0   0   0
   592   593      0   0   0
   592   616      0   0   0
   592   617      0   0   0
   592   592      0   0   1
   592   592      0   0  -1
   593   568      0   0   0
   593   569      0   0   0
   593   592      0   0   0
   593   594      0   0   0
   593   617      0   0   0
   593   618      0   0   0
   593   593      0   0   1
   593   593      0   0  -1
   594   569      0   0   0
   594   570      0   0   0
   594   593      0   0   0
   594   595      0   0   0
   594   618      0   0   0
   594   619      0   0   0
   594   594      0   0   1
   594   594      0   0  -1
   595   570      0   0   0
   595   571      0   0   0
   595   594      0   0   0
   595   596      0   0   0
   595   619      0   0   0
   595   620      0   0   0
   595   595      0   0   1
   595   595      0   0  -1
   596   571      0   0   0
   596   572      0   0   0
   596   595      0   0   0
   596   597      0   0   0
   596   620      0   0   0
   596   621      0   0   0
   596   596      0   0   1
   596   596      0   0  -1
   597   572      0   0   0
   597   573      0   0   0
   597   596      0   0   0
   597   598      0   0   0
   597   621      0   0   0
   597   622      0   0   0
   597   597      0   0   1
   597   597      0   0  -1
   598   573      0   0   0
   598   574      0   0   0
   598   597      0   0   0
   598   599      0   0   0
   598   622      0   0   0
   598   623      0   0   0
   598   598      0   0   1
   598   598      0   0  -1
   599   574      0   0   0
   599   575      0   0   0
   599   598      0   0   0
   599   600      0   0   0
   599   623      0   0   0
   599   624      0   0   0
   599   599      0   0   1
   599   599      0   0  -1
   600   575      0   0   0
   600   599      0   0   0
   600   624      0   0   0
   600   625      0   0   0
   600   551      0   1   0
   600   576      0   1   0
   600   600      0   0   1
   600   600      0   0  -1
   601   576      0   0   0
   601   577      0   0   0
   601   602      0   0   0
   601     1      1   0   0
   601    25      1  -1   0
   601   625      0  -1   0
   601   601      0   0   1
   601   601      0   0  -1
   602   577      0   0   0
   602   578      0   0   0
   602   601      0   0   0
   602   603      0   0   0
   602     1      1   0   0
   602     2      1   0   0
   602   602      0   0   1
   602   602      0   0  -1
   603   578      0   0   0
   603   579      0   0   0
   603   602      0   0   0
   603   604      0   0   0
   603     2      1   0   0
   603     3      1   0   0
   603   603      0   0   1
   603   603      0   0  -1
   604   579      0   0   0
   604   580      0   0   0
   604   603      0   0   0
   604   605      0   0   0
   604     3      1   0   0
   604     4      1   0   0
   604   604      0   0   1
   604   604      0   0  -1
   605   580      0   0   0
   605   581      0   0   0
   605   604      0   0   0
   605   606      0   0   0
   605     4      1   0   0
   605     5      1   0   0
   605   605      0   0   1
   605   605      0   0  -1
   606   581      0   0   0
   606   582      0   0   0
   606   605      0   0   0
   606   607      0   0   0
   606     5      1   0   0
   606     6      1   0   0
   606   606      0   0   1
   606   606      0   0  -1
   607   582      0   0   0
   607   583      0   0   0
   607   606      0   0   0
   607   608      0   0   0
   607     6      1   0   0
   607     7      1   0   0
   607   607      0   0   1
   607   607      0   0  -1
   608   583      0   0   0
   608   584      0   0   0
   608   607      0   0   0
   608   609      0   0   0
   608     7      1   0   0
   608     8      1   0   0
   608   608      0   0   1
   608   608      0   0  -1
   609   584      0   0   0
   609   585      0   0   0
   609   608      0   0   0
   609   610      0   0   0
   609     8      1   0   0
   609     9      1   0   0
   609   609      0   0   1
   609   609      0   0  -1
   610   585      0   0   0
   610   586      0   0   0
   610   609      0   0   0
   610   611      0   0   0
   610     9      1   0   0
   610    10      1   0   0
   610   610      0   0   1
   610   610      0   0  -1
   611   586      0   0   0
   611   587      0   0   0
   611   610      0   0   0
   611   612      0   0   0
   611    10      1   0   0
   611    11      1   0   0
   611   611      0   0   1
   611   611      0   0  -1
   612   587      0   0   0
   612   588      0   0   0
   612   611      0   0   0
   612   613      0   0   0
   612    11      1   0   0
   612    12      1   0   0
   612   612      0   0   1
   612   612      0   0  -1
   613   588      0   0   0
   613   589      0   0   0
   613   612      0   0   0
   613   614      0   0   0
   613    12      1   0   0
   613    13      1   0   0
   613   613      0   0   1
   613   613      0   0  -1
   614   589      0   0   0
   614   590      0   0   0
   614   613      0   0   0
   614   615      0   0   0
   614    13      1   0   0
   614    14      1   0   0
   614   614      0   0   1
   614   614      0   0  -1
   615   590      0   0   0
   615   591      0   0   0
   615   614      0   0   0
   615   616      0   0   0
   615    14      1   0   0
   615    15      1   0   0
   615   615      0   0   1
   615   615      0   0  -1
   616   591      0   0   0
   616   592      0   0   0
   616   615      0   0   0
   616   617      0   0   0
   616    15      1   0   0
   616    16      1   0   0
   616   616      0   0   1
   616   616      0   0  -1
   617   592      0   0   0
   617   593      0   0   0
   617   616      0   0   0
   617   618      0   0   0
   617    16      1   0   0
   617    17      1   0   0
   617   617      0   0   1
   617   617      0   0  -1
   618   593      0   0   0
   618   594      0   0   0
   618   617      0   0   0
   618   619      0   0   0
   618    17      1   0   0
   618    18      1   0   0
   618   618      0   0   1
   618   618      0   0  -1
   619   594      0   0   0
   619   595      0   0   0
   619   618      0   0   0
   619   620      0   0   0
   619    18      1   0   0
   619    19      1   0   0
   619   619      0   0   1
   619   619      0   0  -1
   620   595      0   0   0
   620   596      0   0   0
   620   619      0   0   0
   620   621      0   0   0
   620    19      1   0   0
   620    20      1   0   0
   620   620      0   0   1
   620   620      0   0  -1
   621   596      0   0   0
   621   597      0   0   0
   621   620      0   0   0
   621   622      0   0   0
   621    20      1   0   0
   621    21      1   0   0
   621   621      0   0   1
   621   621      0   0  -1
   622   597      0   0   0
   622   598      0   0   0
   622   621      0   0   0
   622   623      0   0   0
   622    21      1   0   0
   622    22      1   0   0
   622   622      0   0   1
   622   622      0   0  -1
   623   598      0   0   0
   623   599      0   0   0
   623   622      0   0   0
   623   624      0   0   0
   623    22      1   0   0
   623    23      1   0   0
   623   623      0   0   1
   623   623      0   0  -1
   624   599      0   0   0
   624   600      0   0   0
   624   623      0   0   0
   624   625      0   0   0
   624    23      1   0   0
   624    24      1   0   0
   624   624      0   0   1
   624   624      0   0  -1
   625   600      0   0   0
   625   624      0   0   0
   625    24      1   0   0
   625    25      1   0   0
   625   576      0   1   0
   625   601      0   1   0
   625   625      0   0   1
   625   625      0   0  -1
end nnkpts

begin exclude_bands
   0
end exclude_bands
