File written on 10Oct2023 at 16:32:35 

calc_only_A  :  F

begin real_lattice
   3.8409000   0.0000000   0.0000000
   0.0000000   3.8409000   0.0000000
   0.0000000   0.0000000   3.8409000
end real_lattice

begin recip_lattice
   1.6358628   0.0000000   0.0000000
   0.0000000   1.6358628   0.0000000
   0.0000000   0.0000000   1.6358628
end recip_lattice

begin kpoints
  9261
    0.00000000    0.00000000    0.00000000
    0.00000000    0.00000000    0.04761905
    0.00000000    0.00000000    0.09523810
    0.00000000    0.00000000    0.14285714
    0.00000000    0.00000000    0.19047619
    0.00000000    0.00000000    0.23809524
    0.00000000    0.00000000    0.28571429
    0.00000000    0.00000000    0.33333333
    0.00000000    0.00000000    0.38095238
    0.00000000    0.00000000    0.42857143
    0.00000000    0.00000000    0.47619048
    0.00000000    0.00000000    0.52380952
    0.00000000    0.00000000    0.57142857
    0.00000000    0.00000000    0.61904762
    0.00000000    0.00000000    0.66666667
    0.00000000    0.00000000    0.71428571
    0.00000000    0.00000000    0.76190476
    0.00000000    0.00000000    0.80952381
    0.00000000    0.00000000    0.85714286
    0.00000000    0.00000000    0.90476190
    0.00000000    0.00000000    0.95238095
    0.00000000    0.04761905    0.00000000
    0.00000000    0.04761905    0.04761905
    0.00000000    0.04761905    0.09523810
    0.00000000    0.04761905    0.14285714
    0.00000000    0.04761905    0.19047619
    0.00000000    0.04761905    0.23809524
    0.00000000    0.04761905    0.28571429
    0.00000000    0.04761905    0.33333333
    0.00000000    0.04761905    0.38095238
    0.00000000    0.04761905    0.42857143
    0.00000000    0.04761905    0.47619048
    0.00000000    0.04761905    0.52380952
    0.00000000    0.04761905    0.57142857
    0.00000000    0.04761905    0.61904762
    0.00000000    0.04761905    0.66666667
    0.00000000    0.04761905    0.71428571
    0.00000000    0.04761905    0.76190476
    0.00000000    0.04761905    0.80952381
    0.00000000    0.04761905    0.85714286
    0.00000000    0.04761905    0.90476190
    0.00000000    0.04761905    0.95238095
    0.00000000    0.09523810    0.00000000
    0.00000000    0.09523810    0.04761905
    0.00000000    0.09523810    0.09523810
    0.00000000    0.09523810    0.14285714
    0.00000000    0.09523810    0.19047619
    0.00000000    0.09523810    0.23809524
    0.00000000    0.09523810    0.28571429
    0.00000000    0.09523810    0.33333333
    0.00000000    0.09523810    0.38095238
    0.00000000    0.09523810    0.42857143
    0.00000000    0.09523810    0.47619048
    0.00000000    0.09523810    0.52380952
    0.00000000    0.09523810    0.57142857
    0.00000000    0.09523810    0.61904762
    0.00000000    0.09523810    0.66666667
    0.00000000    0.09523810    0.71428571
    0.00000000    0.09523810    0.76190476
    0.00000000    0.09523810    0.80952381
    0.00000000    0.09523810    0.85714286
    0.00000000    0.09523810    0.90476190
    0.00000000    0.09523810    0.95238095
    0.00000000    0.14285714    0.00000000
    0.00000000    0.14285714    0.04761905
    0.00000000    0.14285714    0.09523810
    0.00000000    0.14285714    0.14285714
    0.00000000    0.14285714    0.19047619
    0.00000000    0.14285714    0.23809524
    0.00000000    0.14285714    0.28571429
    0.00000000    0.14285714    0.33333333
    0.00000000    0.14285714    0.38095238
    0.00000000    0.14285714    0.42857143
    0.00000000    0.14285714    0.47619048
    0.00000000    0.14285714    0.52380952
    0.00000000    0.14285714    0.57142857
    0.00000000    0.14285714    0.61904762
    0.00000000    0.14285714    0.66666667
    0.00000000    0.14285714    0.71428571
    0.00000000    0.14285714    0.76190476
    0.00000000    0.14285714    0.80952381
    0.00000000    0.14285714    0.85714286
    0.00000000    0.14285714    0.90476190
    0.00000000    0.14285714    0.95238095
    0.00000000    0.19047619    0.00000000
    0.00000000    0.19047619    0.04761905
    0.00000000    0.19047619    0.09523810
    0.00000000    0.19047619    0.14285714
    0.00000000    0.19047619    0.19047619
    0.00000000    0.19047619    0.23809524
    0.00000000    0.19047619    0.28571429
    0.00000000    0.19047619    0.33333333
    0.00000000    0.19047619    0.38095238
    0.00000000    0.19047619    0.42857143
    0.00000000    0.19047619    0.47619048
    0.00000000    0.19047619    0.52380952
    0.00000000    0.19047619    0.57142857
    0.00000000    0.19047619    0.61904762
    0.00000000    0.19047619    0.66666667
    0.00000000    0.19047619    0.71428571
    0.00000000    0.19047619    0.76190476
    0.00000000    0.19047619    0.80952381
    0.00000000    0.19047619    0.85714286
    0.00000000    0.19047619    0.90476190
    0.00000000    0.19047619    0.95238095
    0.00000000    0.23809524    0.00000000
    0.00000000    0.23809524    0.04761905
    0.00000000    0.23809524    0.09523810
    0.00000000    0.23809524    0.14285714
    0.00000000    0.23809524    0.19047619
    0.00000000    0.23809524    0.23809524
    0.00000000    0.23809524    0.28571429
    0.00000000    0.23809524    0.33333333
    0.00000000    0.23809524    0.38095238
    0.00000000    0.23809524    0.42857143
    0.00000000    0.23809524    0.47619048
    0.00000000    0.23809524    0.52380952
    0.00000000    0.23809524    0.57142857
    0.00000000    0.23809524    0.61904762
    0.00000000    0.23809524    0.66666667
    0.00000000    0.23809524    0.71428571
    0.00000000    0.23809524    0.76190476
    0.00000000    0.23809524    0.80952381
    0.00000000    0.23809524    0.85714286
    0.00000000    0.23809524    0.90476190
    0.00000000    0.23809524    0.95238095
    0.00000000    0.28571429    0.00000000
    0.00000000    0.28571429    0.04761905
    0.00000000    0.28571429    0.09523810
    0.00000000    0.28571429    0.14285714
    0.00000000    0.28571429    0.19047619
    0.00000000    0.28571429    0.23809524
    0.00000000    0.28571429    0.28571429
    0.00000000    0.28571429    0.33333333
    0.00000000    0.28571429    0.38095238
    0.00000000    0.28571429    0.42857143
    0.00000000    0.28571429    0.47619048
    0.00000000    0.28571429    0.52380952
    0.00000000    0.28571429    0.57142857
    0.00000000    0.28571429    0.61904762
    0.00000000    0.28571429    0.66666667
    0.00000000    0.28571429    0.71428571
    0.00000000    0.28571429    0.76190476
    0.00000000    0.28571429    0.80952381
    0.00000000    0.28571429    0.85714286
    0.00000000    0.28571429    0.90476190
    0.00000000    0.28571429    0.95238095
    0.00000000    0.33333333    0.00000000
    0.00000000    0.33333333    0.04761905
    0.00000000    0.33333333    0.09523810
    0.00000000    0.33333333    0.14285714
    0.00000000    0.33333333    0.19047619
    0.00000000    0.33333333    0.23809524
    0.00000000    0.33333333    0.28571429
    0.00000000    0.33333333    0.33333333
    0.00000000    0.33333333    0.38095238
    0.00000000    0.33333333    0.42857143
    0.00000000    0.33333333    0.47619048
    0.00000000    0.33333333    0.52380952
    0.00000000    0.33333333    0.57142857
    0.00000000    0.33333333    0.61904762
    0.00000000    0.33333333    0.66666667
    0.00000000    0.33333333    0.71428571
    0.00000000    0.33333333    0.76190476
    0.00000000    0.33333333    0.80952381
    0.00000000    0.33333333    0.85714286
    0.00000000    0.33333333    0.90476190
    0.00000000    0.33333333    0.95238095
    0.00000000    0.38095238    0.00000000
    0.00000000    0.38095238    0.04761905
    0.00000000    0.38095238    0.09523810
    0.00000000    0.38095238    0.14285714
    0.00000000    0.38095238    0.19047619
    0.00000000    0.38095238    0.23809524
    0.00000000    0.38095238    0.28571429
    0.00000000    0.38095238    0.33333333
    0.00000000    0.38095238    0.38095238
    0.00000000    0.38095238    0.42857143
    0.00000000    0.38095238    0.47619048
    0.00000000    0.38095238    0.52380952
    0.00000000    0.38095238    0.57142857
    0.00000000    0.38095238    0.61904762
    0.00000000    0.38095238    0.66666667
    0.00000000    0.38095238    0.71428571
    0.00000000    0.38095238    0.76190476
    0.00000000    0.38095238    0.80952381
    0.00000000    0.38095238    0.85714286
    0.00000000    0.38095238    0.90476190
    0.00000000    0.38095238    0.95238095
    0.00000000    0.42857143    0.00000000
    0.00000000    0.42857143    0.04761905
    0.00000000    0.42857143    0.09523810
    0.00000000    0.42857143    0.14285714
    0.00000000    0.42857143    0.19047619
    0.00000000    0.42857143    0.23809524
    0.00000000    0.42857143    0.28571429
    0.00000000    0.42857143    0.33333333
    0.00000000    0.42857143    0.38095238
    0.00000000    0.42857143    0.42857143
    0.00000000    0.42857143    0.47619048
    0.00000000    0.42857143    0.52380952
    0.00000000    0.42857143    0.57142857
    0.00000000    0.42857143    0.61904762
    0.00000000    0.42857143    0.66666667
    0.00000000    0.42857143    0.71428571
    0.00000000    0.42857143    0.76190476
    0.00000000    0.42857143    0.80952381
    0.00000000    0.42857143    0.85714286
    0.00000000    0.42857143    0.90476190
    0.00000000    0.42857143    0.95238095
    0.00000000    0.47619048    0.00000000
    0.00000000    0.47619048    0.04761905
    0.00000000    0.47619048    0.09523810
    0.00000000    0.47619048    0.14285714
    0.00000000    0.47619048    0.19047619
    0.00000000    0.47619048    0.23809524
    0.00000000    0.47619048    0.28571429
    0.00000000    0.47619048    0.33333333
    0.00000000    0.47619048    0.38095238
    0.00000000    0.47619048    0.42857143
    0.00000000    0.47619048    0.47619048
    0.00000000    0.47619048    0.52380952
    0.00000000    0.47619048    0.57142857
    0.00000000    0.47619048    0.61904762
    0.00000000    0.47619048    0.66666667
    0.00000000    0.47619048    0.71428571
    0.00000000    0.47619048    0.76190476
    0.00000000    0.47619048    0.80952381
    0.00000000    0.47619048    0.85714286
    0.00000000    0.47619048    0.90476190
    0.00000000    0.47619048    0.95238095
    0.00000000    0.52380952    0.00000000
    0.00000000    0.52380952    0.04761905
    0.00000000    0.52380952    0.09523810
    0.00000000    0.52380952    0.14285714
    0.00000000    0.52380952    0.19047619
    0.00000000    0.52380952    0.23809524
    0.00000000    0.52380952    0.28571429
    0.00000000    0.52380952    0.33333333
    0.00000000    0.52380952    0.38095238
    0.00000000    0.52380952    0.42857143
    0.00000000    0.52380952    0.47619048
    0.00000000    0.52380952    0.52380952
    0.00000000    0.52380952    0.57142857
    0.00000000    0.52380952    0.61904762
    0.00000000    0.52380952    0.66666667
    0.00000000    0.52380952    0.71428571
    0.00000000    0.52380952    0.76190476
    0.00000000    0.52380952    0.80952381
    0.00000000    0.52380952    0.85714286
    0.00000000    0.52380952    0.90476190
    0.00000000    0.52380952    0.95238095
    0.00000000    0.57142857    0.00000000
    0.00000000    0.57142857    0.04761905
    0.00000000    0.57142857    0.09523810
    0.00000000    0.57142857    0.14285714
    0.00000000    0.57142857    0.19047619
    0.00000000    0.57142857    0.23809524
    0.00000000    0.57142857    0.28571429
    0.00000000    0.57142857    0.33333333
    0.00000000    0.57142857    0.38095238
    0.00000000    0.57142857    0.42857143
    0.00000000    0.57142857    0.47619048
    0.00000000    0.57142857    0.52380952
    0.00000000    0.57142857    0.57142857
    0.00000000    0.57142857    0.61904762
    0.00000000    0.57142857    0.66666667
    0.00000000    0.57142857    0.71428571
    0.00000000    0.57142857    0.76190476
    0.00000000    0.57142857    0.80952381
    0.00000000    0.57142857    0.85714286
    0.00000000    0.57142857    0.90476190
    0.00000000    0.57142857    0.95238095
    0.00000000    0.61904762    0.00000000
    0.00000000    0.61904762    0.04761905
    0.00000000    0.61904762    0.09523810
    0.00000000    0.61904762    0.14285714
    0.00000000    0.61904762    0.19047619
    0.00000000    0.61904762    0.23809524
    0.00000000    0.61904762    0.28571429
    0.00000000    0.61904762    0.33333333
    0.00000000    0.61904762    0.38095238
    0.00000000    0.61904762    0.42857143
    0.00000000    0.61904762    0.47619048
    0.00000000    0.61904762    0.52380952
    0.00000000    0.61904762    0.57142857
    0.00000000    0.61904762    0.61904762
    0.00000000    0.61904762    0.66666667
    0.00000000    0.61904762    0.71428571
    0.00000000    0.61904762    0.76190476
    0.00000000    0.61904762    0.80952381
    0.00000000    0.61904762    0.85714286
    0.00000000    0.61904762    0.90476190
    0.00000000    0.61904762    0.95238095
    0.00000000    0.66666667    0.00000000
    0.00000000    0.66666667    0.04761905
    0.00000000    0.66666667    0.09523810
    0.00000000    0.66666667    0.14285714
    0.00000000    0.66666667    0.19047619
    0.00000000    0.66666667    0.23809524
    0.00000000    0.66666667    0.28571429
    0.00000000    0.66666667    0.33333333
    0.00000000    0.66666667    0.38095238
    0.00000000    0.66666667    0.42857143
    0.00000000    0.66666667    0.47619048
    0.00000000    0.66666667    0.52380952
    0.00000000    0.66666667    0.57142857
    0.00000000    0.66666667    0.61904762
    0.00000000    0.66666667    0.66666667
    0.00000000    0.66666667    0.71428571
    0.00000000    0.66666667    0.76190476
    0.00000000    0.66666667    0.80952381
    0.00000000    0.66666667    0.85714286
    0.00000000    0.66666667    0.90476190
    0.00000000    0.66666667    0.95238095
    0.00000000    0.71428571    0.00000000
    0.00000000    0.71428571    0.04761905
    0.00000000    0.71428571    0.09523810
    0.00000000    0.71428571    0.14285714
    0.00000000    0.71428571    0.19047619
    0.00000000    0.71428571    0.23809524
    0.00000000    0.71428571    0.28571429
    0.00000000    0.71428571    0.33333333
    0.00000000    0.71428571    0.38095238
    0.00000000    0.71428571    0.42857143
    0.00000000    0.71428571    0.47619048
    0.00000000    0.71428571    0.52380952
    0.00000000    0.71428571    0.57142857
    0.00000000    0.71428571    0.61904762
    0.00000000    0.71428571    0.66666667
    0.00000000    0.71428571    0.71428571
    0.00000000    0.71428571    0.76190476
    0.00000000    0.71428571    0.80952381
    0.00000000    0.71428571    0.85714286
    0.00000000    0.71428571    0.90476190
    0.00000000    0.71428571    0.95238095
    0.00000000    0.76190476    0.00000000
    0.00000000    0.76190476    0.04761905
    0.00000000    0.76190476    0.09523810
    0.00000000    0.76190476    0.14285714
    0.00000000    0.76190476    0.19047619
    0.00000000    0.76190476    0.23809524
    0.00000000    0.76190476    0.28571429
    0.00000000    0.76190476    0.33333333
    0.00000000    0.76190476    0.38095238
    0.00000000    0.76190476    0.42857143
    0.00000000    0.76190476    0.47619048
    0.00000000    0.76190476    0.52380952
    0.00000000    0.76190476    0.57142857
    0.00000000    0.76190476    0.61904762
    0.00000000    0.76190476    0.66666667
    0.00000000    0.76190476    0.71428571
    0.00000000    0.76190476    0.76190476
    0.00000000    0.76190476    0.80952381
    0.00000000    0.76190476    0.85714286
    0.00000000    0.76190476    0.90476190
    0.00000000    0.76190476    0.95238095
    0.00000000    0.80952381    0.00000000
    0.00000000    0.80952381    0.04761905
    0.00000000    0.80952381    0.09523810
    0.00000000    0.80952381    0.14285714
    0.00000000    0.80952381    0.19047619
    0.00000000    0.80952381    0.23809524
    0.00000000    0.80952381    0.28571429
    0.00000000    0.80952381    0.33333333
    0.00000000    0.80952381    0.38095238
    0.00000000    0.80952381    0.42857143
    0.00000000    0.80952381    0.47619048
    0.00000000    0.80952381    0.52380952
    0.00000000    0.80952381    0.57142857
    0.00000000    0.80952381    0.61904762
    0.00000000    0.80952381    0.66666667
    0.00000000    0.80952381    0.71428571
    0.00000000    0.80952381    0.76190476
    0.00000000    0.80952381    0.80952381
    0.00000000    0.80952381    0.85714286
    0.00000000    0.80952381    0.90476190
    0.00000000    0.80952381    0.95238095
    0.00000000    0.85714286    0.00000000
    0.00000000    0.85714286    0.04761905
    0.00000000    0.85714286    0.09523810
    0.00000000    0.85714286    0.14285714
    0.00000000    0.85714286    0.19047619
    0.00000000    0.85714286    0.23809524
    0.00000000    0.85714286    0.28571429
    0.00000000    0.85714286    0.33333333
    0.00000000    0.85714286    0.38095238
    0.00000000    0.85714286    0.42857143
    0.00000000    0.85714286    0.47619048
    0.00000000    0.85714286    0.52380952
    0.00000000    0.85714286    0.57142857
    0.00000000    0.85714286    0.61904762
    0.00000000    0.85714286    0.66666667
    0.00000000    0.85714286    0.71428571
    0.00000000    0.85714286    0.76190476
    0.00000000    0.85714286    0.80952381
    0.00000000    0.85714286    0.85714286
    0.00000000    0.85714286    0.90476190
    0.00000000    0.85714286    0.95238095
    0.00000000    0.90476190    0.00000000
    0.00000000    0.90476190    0.04761905
    0.00000000    0.90476190    0.09523810
    0.00000000    0.90476190    0.14285714
    0.00000000    0.90476190    0.19047619
    0.00000000    0.90476190    0.23809524
    0.00000000    0.90476190    0.28571429
    0.00000000    0.90476190    0.33333333
    0.00000000    0.90476190    0.38095238
    0.00000000    0.90476190    0.42857143
    0.00000000    0.90476190    0.47619048
    0.00000000    0.90476190    0.52380952
    0.00000000    0.90476190    0.57142857
    0.00000000    0.90476190    0.61904762
    0.00000000    0.90476190    0.66666667
    0.00000000    0.90476190    0.71428571
    0.00000000    0.90476190    0.76190476
    0.00000000    0.90476190    0.80952381
    0.00000000    0.90476190    0.85714286
    0.00000000    0.90476190    0.90476190
    0.00000000    0.90476190    0.95238095
    0.00000000    0.95238095    0.00000000
    0.00000000    0.95238095    0.04761905
    0.00000000    0.95238095    0.09523810
    0.00000000    0.95238095    0.14285714
    0.00000000    0.95238095    0.19047619
    0.00000000    0.95238095    0.23809524
    0.00000000    0.95238095    0.28571429
    0.00000000    0.95238095    0.33333333
    0.00000000    0.95238095    0.38095238
    0.00000000    0.95238095    0.42857143
    0.00000000    0.95238095    0.47619048
    0.00000000    0.95238095    0.52380952
    0.00000000    0.95238095    0.57142857
    0.00000000    0.95238095    0.61904762
    0.00000000    0.95238095    0.66666667
    0.00000000    0.95238095    0.71428571
    0.00000000    0.95238095    0.76190476
    0.00000000    0.95238095    0.80952381
    0.00000000    0.95238095    0.85714286
    0.00000000    0.95238095    0.90476190
    0.00000000    0.95238095    0.95238095
    0.04761905    0.00000000    0.00000000
    0.04761905    0.00000000    0.04761905
    0.04761905    0.00000000    0.09523810
    0.04761905    0.00000000    0.14285714
    0.04761905    0.00000000    0.19047619
    0.04761905    0.00000000    0.23809524
    0.04761905    0.00000000    0.28571429
    0.04761905    0.00000000    0.33333333
    0.04761905    0.00000000    0.38095238
    0.04761905    0.00000000    0.42857143
    0.04761905    0.00000000    0.47619048
    0.04761905    0.00000000    0.52380952
    0.04761905    0.00000000    0.57142857
    0.04761905    0.00000000    0.61904762
    0.04761905    0.00000000    0.66666667
    0.04761905    0.00000000    0.71428571
    0.04761905    0.00000000    0.76190476
    0.04761905    0.00000000    0.80952381
    0.04761905    0.00000000    0.85714286
    0.04761905    0.00000000    0.90476190
    0.04761905    0.00000000    0.95238095
    0.04761905    0.04761905    0.00000000
    0.04761905    0.04761905    0.04761905
    0.04761905    0.04761905    0.09523810
    0.04761905    0.04761905    0.14285714
    0.04761905    0.04761905    0.19047619
    0.04761905    0.04761905    0.23809524
    0.04761905    0.04761905    0.28571429
    0.04761905    0.04761905    0.33333333
    0.04761905    0.04761905    0.38095238
    0.04761905    0.04761905    0.42857143
    0.04761905    0.04761905    0.47619048
    0.04761905    0.04761905    0.52380952
    0.04761905    0.04761905    0.57142857
    0.04761905    0.04761905    0.61904762
    0.04761905    0.04761905    0.66666667
    0.04761905    0.04761905    0.71428571
    0.04761905    0.04761905    0.76190476
    0.04761905    0.04761905    0.80952381
    0.04761905    0.04761905    0.85714286
    0.04761905    0.04761905    0.90476190
    0.04761905    0.04761905    0.95238095
    0.04761905    0.09523810    0.00000000
    0.04761905    0.09523810    0.04761905
    0.04761905    0.09523810    0.09523810
    0.04761905    0.09523810    0.14285714
    0.04761905    0.09523810    0.19047619
    0.04761905    0.09523810    0.23809524
    0.04761905    0.09523810    0.28571429
    0.04761905    0.09523810    0.33333333
    0.04761905    0.09523810    0.38095238
    0.04761905    0.09523810    0.42857143
    0.04761905    0.09523810    0.47619048
    0.04761905    0.09523810    0.52380952
    0.04761905    0.09523810    0.57142857
    0.04761905    0.09523810    0.61904762
    0.04761905    0.09523810    0.66666667
    0.04761905    0.09523810    0.71428571
    0.04761905    0.09523810    0.76190476
    0.04761905    0.09523810    0.80952381
    0.04761905    0.09523810    0.85714286
    0.04761905    0.09523810    0.90476190
    0.04761905    0.09523810    0.95238095
    0.04761905    0.14285714    0.00000000
    0.04761905    0.14285714    0.04761905
    0.04761905    0.14285714    0.09523810
    0.04761905    0.14285714    0.14285714
    0.04761905    0.14285714    0.19047619
    0.04761905    0.14285714    0.23809524
    0.04761905    0.14285714    0.28571429
    0.04761905    0.14285714    0.33333333
    0.04761905    0.14285714    0.38095238
    0.04761905    0.14285714    0.42857143
    0.04761905    0.14285714    0.47619048
    0.04761905    0.14285714    0.52380952
    0.04761905    0.14285714    0.57142857
    0.04761905    0.14285714    0.61904762
    0.04761905    0.14285714    0.66666667
    0.04761905    0.14285714    0.71428571
    0.04761905    0.14285714    0.76190476
    0.04761905    0.14285714    0.80952381
    0.04761905    0.14285714    0.85714286
    0.04761905    0.14285714    0.90476190
    0.04761905    0.14285714    0.95238095
    0.04761905    0.19047619    0.00000000
    0.04761905    0.19047619    0.04761905
    0.04761905    0.19047619    0.09523810
    0.04761905    0.19047619    0.14285714
    0.04761905    0.19047619    0.19047619
    0.04761905    0.19047619    0.23809524
    0.04761905    0.19047619    0.28571429
    0.04761905    0.19047619    0.33333333
    0.04761905    0.19047619    0.38095238
    0.04761905    0.19047619    0.42857143
    0.04761905    0.19047619    0.47619048
    0.04761905    0.19047619    0.52380952
    0.04761905    0.19047619    0.57142857
    0.04761905    0.19047619    0.61904762
    0.04761905    0.19047619    0.66666667
    0.04761905    0.19047619    0.71428571
    0.04761905    0.19047619    0.76190476
    0.04761905    0.19047619    0.80952381
    0.04761905    0.19047619    0.85714286
    0.04761905    0.19047619    0.90476190
    0.04761905    0.19047619    0.95238095
    0.04761905    0.23809524    0.00000000
    0.04761905    0.23809524    0.04761905
    0.04761905    0.23809524    0.09523810
    0.04761905    0.23809524    0.14285714
    0.04761905    0.23809524    0.19047619
    0.04761905    0.23809524    0.23809524
    0.04761905    0.23809524    0.28571429
    0.04761905    0.23809524    0.33333333
    0.04761905    0.23809524    0.38095238
    0.04761905    0.23809524    0.42857143
    0.04761905    0.23809524    0.47619048
    0.04761905    0.23809524    0.52380952
    0.04761905    0.23809524    0.57142857
    0.04761905    0.23809524    0.61904762
    0.04761905    0.23809524    0.66666667
    0.04761905    0.23809524    0.71428571
    0.04761905    0.23809524    0.76190476
    0.04761905    0.23809524    0.80952381
    0.04761905    0.23809524    0.85714286
    0.04761905    0.23809524    0.90476190
    0.04761905    0.23809524    0.95238095
    0.04761905    0.28571429    0.00000000
    0.04761905    0.28571429    0.04761905
    0.04761905    0.28571429    0.09523810
    0.04761905    0.28571429    0.14285714
    0.04761905    0.28571429    0.19047619
    0.04761905    0.28571429    0.23809524
    0.04761905    0.28571429    0.28571429
    0.04761905    0.28571429    0.33333333
    0.04761905    0.28571429    0.38095238
    0.04761905    0.28571429    0.42857143
    0.04761905    0.28571429    0.47619048
    0.04761905    0.28571429    0.52380952
    0.04761905    0.28571429    0.57142857
    0.04761905    0.28571429    0.61904762
    0.04761905    0.28571429    0.66666667
    0.04761905    0.28571429    0.71428571
    0.04761905    0.28571429    0.76190476
    0.04761905    0.28571429    0.80952381
    0.04761905    0.28571429    0.85714286
    0.04761905    0.28571429    0.90476190
    0.04761905    0.28571429    0.95238095
    0.04761905    0.33333333    0.00000000
    0.04761905    0.33333333    0.04761905
    0.04761905    0.33333333    0.09523810
    0.04761905    0.33333333    0.14285714
    0.04761905    0.33333333    0.19047619
    0.04761905    0.33333333    0.23809524
    0.04761905    0.33333333    0.28571429
    0.04761905    0.33333333    0.33333333
    0.04761905    0.33333333    0.38095238
    0.04761905    0.33333333    0.42857143
    0.04761905    0.33333333    0.47619048
    0.04761905    0.33333333    0.52380952
    0.04761905    0.33333333    0.57142857
    0.04761905    0.33333333    0.61904762
    0.04761905    0.33333333    0.66666667
    0.04761905    0.33333333    0.71428571
    0.04761905    0.33333333    0.76190476
    0.04761905    0.33333333    0.80952381
    0.04761905    0.33333333    0.85714286
    0.04761905    0.33333333    0.90476190
    0.04761905    0.33333333    0.95238095
    0.04761905    0.38095238    0.00000000
    0.04761905    0.38095238    0.04761905
    0.04761905    0.38095238    0.09523810
    0.04761905    0.38095238    0.14285714
    0.04761905    0.38095238    0.19047619
    0.04761905    0.38095238    0.23809524
    0.04761905    0.38095238    0.28571429
    0.04761905    0.38095238    0.33333333
    0.04761905    0.38095238    0.38095238
    0.04761905    0.38095238    0.42857143
    0.04761905    0.38095238    0.47619048
    0.04761905    0.38095238    0.52380952
    0.04761905    0.38095238    0.57142857
    0.04761905    0.38095238    0.61904762
    0.04761905    0.38095238    0.66666667
    0.04761905    0.38095238    0.71428571
    0.04761905    0.38095238    0.76190476
    0.04761905    0.38095238    0.80952381
    0.04761905    0.38095238    0.85714286
    0.04761905    0.38095238    0.90476190
    0.04761905    0.38095238    0.95238095
    0.04761905    0.42857143    0.00000000
    0.04761905    0.42857143    0.04761905
    0.04761905    0.42857143    0.09523810
    0.04761905    0.42857143    0.14285714
    0.04761905    0.42857143    0.19047619
    0.04761905    0.42857143    0.23809524
    0.04761905    0.42857143    0.28571429
    0.04761905    0.42857143    0.33333333
    0.04761905    0.42857143    0.38095238
    0.04761905    0.42857143    0.42857143
    0.04761905    0.42857143    0.47619048
    0.04761905    0.42857143    0.52380952
    0.04761905    0.42857143    0.57142857
    0.04761905    0.42857143    0.61904762
    0.04761905    0.42857143    0.66666667
    0.04761905    0.42857143    0.71428571
    0.04761905    0.42857143    0.76190476
    0.04761905    0.42857143    0.80952381
    0.04761905    0.42857143    0.85714286
    0.04761905    0.42857143    0.90476190
    0.04761905    0.42857143    0.95238095
    0.04761905    0.47619048    0.00000000
    0.04761905    0.47619048    0.04761905
    0.04761905    0.47619048    0.09523810
    0.04761905    0.47619048    0.14285714
    0.04761905    0.47619048    0.19047619
    0.04761905    0.47619048    0.23809524
    0.04761905    0.47619048    0.28571429
    0.04761905    0.47619048    0.33333333
    0.04761905    0.47619048    0.38095238
    0.04761905    0.47619048    0.42857143
    0.04761905    0.47619048    0.47619048
    0.04761905    0.47619048    0.52380952
    0.04761905    0.47619048    0.57142857
    0.04761905    0.47619048    0.61904762
    0.04761905    0.47619048    0.66666667
    0.04761905    0.47619048    0.71428571
    0.04761905    0.47619048    0.76190476
    0.04761905    0.47619048    0.80952381
    0.04761905    0.47619048    0.85714286
    0.04761905    0.47619048    0.90476190
    0.04761905    0.47619048    0.95238095
    0.04761905    0.52380952    0.00000000
    0.04761905    0.52380952    0.04761905
    0.04761905    0.52380952    0.09523810
    0.04761905    0.52380952    0.14285714
    0.04761905    0.52380952    0.19047619
    0.04761905    0.52380952    0.23809524
    0.04761905    0.52380952    0.28571429
    0.04761905    0.52380952    0.33333333
    0.04761905    0.52380952    0.38095238
    0.04761905    0.52380952    0.42857143
    0.04761905    0.52380952    0.47619048
    0.04761905    0.52380952    0.52380952
    0.04761905    0.52380952    0.57142857
    0.04761905    0.52380952    0.61904762
    0.04761905    0.52380952    0.66666667
    0.04761905    0.52380952    0.71428571
    0.04761905    0.52380952    0.76190476
    0.04761905    0.52380952    0.80952381
    0.04761905    0.52380952    0.85714286
    0.04761905    0.52380952    0.90476190
    0.04761905    0.52380952    0.95238095
    0.04761905    0.57142857    0.00000000
    0.04761905    0.57142857    0.04761905
    0.04761905    0.57142857    0.09523810
    0.04761905    0.57142857    0.14285714
    0.04761905    0.57142857    0.19047619
    0.04761905    0.57142857    0.23809524
    0.04761905    0.57142857    0.28571429
    0.04761905    0.57142857    0.33333333
    0.04761905    0.57142857    0.38095238
    0.04761905    0.57142857    0.42857143
    0.04761905    0.57142857    0.47619048
    0.04761905    0.57142857    0.52380952
    0.04761905    0.57142857    0.57142857
    0.04761905    0.57142857    0.61904762
    0.04761905    0.57142857    0.66666667
    0.04761905    0.57142857    0.71428571
    0.04761905    0.57142857    0.76190476
    0.04761905    0.57142857    0.80952381
    0.04761905    0.57142857    0.85714286
    0.04761905    0.57142857    0.90476190
    0.04761905    0.57142857    0.95238095
    0.04761905    0.61904762    0.00000000
    0.04761905    0.61904762    0.04761905
    0.04761905    0.61904762    0.09523810
    0.04761905    0.61904762    0.14285714
    0.04761905    0.61904762    0.19047619
    0.04761905    0.61904762    0.23809524
    0.04761905    0.61904762    0.28571429
    0.04761905    0.61904762    0.33333333
    0.04761905    0.61904762    0.38095238
    0.04761905    0.61904762    0.42857143
    0.04761905    0.61904762    0.47619048
    0.04761905    0.61904762    0.52380952
    0.04761905    0.61904762    0.57142857
    0.04761905    0.61904762    0.61904762
    0.04761905    0.61904762    0.66666667
    0.04761905    0.61904762    0.71428571
    0.04761905    0.61904762    0.76190476
    0.04761905    0.61904762    0.80952381
    0.04761905    0.61904762    0.85714286
    0.04761905    0.61904762    0.90476190
    0.04761905    0.61904762    0.95238095
    0.04761905    0.66666667    0.00000000
    0.04761905    0.66666667    0.04761905
    0.04761905    0.66666667    0.09523810
    0.04761905    0.66666667    0.14285714
    0.04761905    0.66666667    0.19047619
    0.04761905    0.66666667    0.23809524
    0.04761905    0.66666667    0.28571429
    0.04761905    0.66666667    0.33333333
    0.04761905    0.66666667    0.38095238
    0.04761905    0.66666667    0.42857143
    0.04761905    0.66666667    0.47619048
    0.04761905    0.66666667    0.52380952
    0.04761905    0.66666667    0.57142857
    0.04761905    0.66666667    0.61904762
    0.04761905    0.66666667    0.66666667
    0.04761905    0.66666667    0.71428571
    0.04761905    0.66666667    0.76190476
    0.04761905    0.66666667    0.80952381
    0.04761905    0.66666667    0.85714286
    0.04761905    0.66666667    0.90476190
    0.04761905    0.66666667    0.95238095
    0.04761905    0.71428571    0.00000000
    0.04761905    0.71428571    0.04761905
    0.04761905    0.71428571    0.09523810
    0.04761905    0.71428571    0.14285714
    0.04761905    0.71428571    0.19047619
    0.04761905    0.71428571    0.23809524
    0.04761905    0.71428571    0.28571429
    0.04761905    0.71428571    0.33333333
    0.04761905    0.71428571    0.38095238
    0.04761905    0.71428571    0.42857143
    0.04761905    0.71428571    0.47619048
    0.04761905    0.71428571    0.52380952
    0.04761905    0.71428571    0.57142857
    0.04761905    0.71428571    0.61904762
    0.04761905    0.71428571    0.66666667
    0.04761905    0.71428571    0.71428571
    0.04761905    0.71428571    0.76190476
    0.04761905    0.71428571    0.80952381
    0.04761905    0.71428571    0.85714286
    0.04761905    0.71428571    0.90476190
    0.04761905    0.71428571    0.95238095
    0.04761905    0.76190476    0.00000000
    0.04761905    0.76190476    0.04761905
    0.04761905    0.76190476    0.09523810
    0.04761905    0.76190476    0.14285714
    0.04761905    0.76190476    0.19047619
    0.04761905    0.76190476    0.23809524
    0.04761905    0.76190476    0.28571429
    0.04761905    0.76190476    0.33333333
    0.04761905    0.76190476    0.38095238
    0.04761905    0.76190476    0.42857143
    0.04761905    0.76190476    0.47619048
    0.04761905    0.76190476    0.52380952
    0.04761905    0.76190476    0.57142857
    0.04761905    0.76190476    0.61904762
    0.04761905    0.76190476    0.66666667
    0.04761905    0.76190476    0.71428571
    0.04761905    0.76190476    0.76190476
    0.04761905    0.76190476    0.80952381
    0.04761905    0.76190476    0.85714286
    0.04761905    0.76190476    0.90476190
    0.04761905    0.76190476    0.95238095
    0.04761905    0.80952381    0.00000000
    0.04761905    0.80952381    0.04761905
    0.04761905    0.80952381    0.09523810
    0.04761905    0.80952381    0.14285714
    0.04761905    0.80952381    0.19047619
    0.04761905    0.80952381    0.23809524
    0.04761905    0.80952381    0.28571429
    0.04761905    0.80952381    0.33333333
    0.04761905    0.80952381    0.38095238
    0.04761905    0.80952381    0.42857143
    0.04761905    0.80952381    0.47619048
    0.04761905    0.80952381    0.52380952
    0.04761905    0.80952381    0.57142857
    0.04761905    0.80952381    0.61904762
    0.04761905    0.80952381    0.66666667
    0.04761905    0.80952381    0.71428571
    0.04761905    0.80952381    0.76190476
    0.04761905    0.80952381    0.80952381
    0.04761905    0.80952381    0.85714286
    0.04761905    0.80952381    0.90476190
    0.04761905    0.80952381    0.95238095
    0.04761905    0.85714286    0.00000000
    0.04761905    0.85714286    0.04761905
    0.04761905    0.85714286    0.09523810
    0.04761905    0.85714286    0.14285714
    0.04761905    0.85714286    0.19047619
    0.04761905    0.85714286    0.23809524
    0.04761905    0.85714286    0.28571429
    0.04761905    0.85714286    0.33333333
    0.04761905    0.85714286    0.38095238
    0.04761905    0.85714286    0.42857143
    0.04761905    0.85714286    0.47619048
    0.04761905    0.85714286    0.52380952
    0.04761905    0.85714286    0.57142857
    0.04761905    0.85714286    0.61904762
    0.04761905    0.85714286    0.66666667
    0.04761905    0.85714286    0.71428571
    0.04761905    0.85714286    0.76190476
    0.04761905    0.85714286    0.80952381
    0.04761905    0.85714286    0.85714286
    0.04761905    0.85714286    0.90476190
    0.04761905    0.85714286    0.95238095
    0.04761905    0.90476190    0.00000000
    0.04761905    0.90476190    0.04761905
    0.04761905    0.90476190    0.09523810
    0.04761905    0.90476190    0.14285714
    0.04761905    0.90476190    0.19047619
    0.04761905    0.90476190    0.23809524
    0.04761905    0.90476190    0.28571429
    0.04761905    0.90476190    0.33333333
    0.04761905    0.90476190    0.38095238
    0.04761905    0.90476190    0.42857143
    0.04761905    0.90476190    0.47619048
    0.04761905    0.90476190    0.52380952
    0.04761905    0.90476190    0.57142857
    0.04761905    0.90476190    0.61904762
    0.04761905    0.90476190    0.66666667
    0.04761905    0.90476190    0.71428571
    0.04761905    0.90476190    0.76190476
    0.04761905    0.90476190    0.80952381
    0.04761905    0.90476190    0.85714286
    0.04761905    0.90476190    0.90476190
    0.04761905    0.90476190    0.95238095
    0.04761905    0.95238095    0.00000000
    0.04761905    0.95238095    0.04761905
    0.04761905    0.95238095    0.09523810
    0.04761905    0.95238095    0.14285714
    0.04761905    0.95238095    0.19047619
    0.04761905    0.95238095    0.23809524
    0.04761905    0.95238095    0.28571429
    0.04761905    0.95238095    0.33333333
    0.04761905    0.95238095    0.38095238
    0.04761905    0.95238095    0.42857143
    0.04761905    0.95238095    0.47619048
    0.04761905    0.95238095    0.52380952
    0.04761905    0.95238095    0.57142857
    0.04761905    0.95238095    0.61904762
    0.04761905    0.95238095    0.66666667
    0.04761905    0.95238095    0.71428571
    0.04761905    0.95238095    0.76190476
    0.04761905    0.95238095    0.80952381
    0.04761905    0.95238095    0.85714286
    0.04761905    0.95238095    0.90476190
    0.04761905    0.95238095    0.95238095
    0.09523810    0.00000000    0.00000000
    0.09523810    0.00000000    0.04761905
    0.09523810    0.00000000    0.09523810
    0.09523810    0.00000000    0.14285714
    0.09523810    0.00000000    0.19047619
    0.09523810    0.00000000    0.23809524
    0.09523810    0.00000000    0.28571429
    0.09523810    0.00000000    0.33333333
    0.09523810    0.00000000    0.38095238
    0.09523810    0.00000000    0.42857143
    0.09523810    0.00000000    0.47619048
    0.09523810    0.00000000    0.52380952
    0.09523810    0.00000000    0.57142857
    0.09523810    0.00000000    0.61904762
    0.09523810    0.00000000    0.66666667
    0.09523810    0.00000000    0.71428571
    0.09523810    0.00000000    0.76190476
    0.09523810    0.00000000    0.80952381
    0.09523810    0.00000000    0.85714286
    0.09523810    0.00000000    0.90476190
    0.09523810    0.00000000    0.95238095
    0.09523810    0.04761905    0.00000000
    0.09523810    0.04761905    0.04761905
    0.09523810    0.04761905    0.09523810
    0.09523810    0.04761905    0.14285714
    0.09523810    0.04761905    0.19047619
    0.09523810    0.04761905    0.23809524
    0.09523810    0.04761905    0.28571429
    0.09523810    0.04761905    0.33333333
    0.09523810    0.04761905    0.38095238
    0.09523810    0.04761905    0.42857143
    0.09523810    0.04761905    0.47619048
    0.09523810    0.04761905    0.52380952
    0.09523810    0.04761905    0.57142857
    0.09523810    0.04761905    0.61904762
    0.09523810    0.04761905    0.66666667
    0.09523810    0.04761905    0.71428571
    0.09523810    0.04761905    0.76190476
    0.09523810    0.04761905    0.80952381
    0.09523810    0.04761905    0.85714286
    0.09523810    0.04761905    0.90476190
    0.09523810    0.04761905    0.95238095
    0.09523810    0.09523810    0.00000000
    0.09523810    0.09523810    0.04761905
    0.09523810    0.09523810    0.09523810
    0.09523810    0.09523810    0.14285714
    0.09523810    0.09523810    0.19047619
    0.09523810    0.09523810    0.23809524
    0.09523810    0.09523810    0.28571429
    0.09523810    0.09523810    0.33333333
    0.09523810    0.09523810    0.38095238
    0.09523810    0.09523810    0.42857143
    0.09523810    0.09523810    0.47619048
    0.09523810    0.09523810    0.52380952
    0.09523810    0.09523810    0.57142857
    0.09523810    0.09523810    0.61904762
    0.09523810    0.09523810    0.66666667
    0.09523810    0.09523810    0.71428571
    0.09523810    0.09523810    0.76190476
    0.09523810    0.09523810    0.80952381
    0.09523810    0.09523810    0.85714286
    0.09523810    0.09523810    0.90476190
    0.09523810    0.09523810    0.95238095
    0.09523810    0.14285714    0.00000000
    0.09523810    0.14285714    0.04761905
    0.09523810    0.14285714    0.09523810
    0.09523810    0.14285714    0.14285714
    0.09523810    0.14285714    0.19047619
    0.09523810    0.14285714    0.23809524
    0.09523810    0.14285714    0.28571429
    0.09523810    0.14285714    0.33333333
    0.09523810    0.14285714    0.38095238
    0.09523810    0.14285714    0.42857143
    0.09523810    0.14285714    0.47619048
    0.09523810    0.14285714    0.52380952
    0.09523810    0.14285714    0.57142857
    0.09523810    0.14285714    0.61904762
    0.09523810    0.14285714    0.66666667
    0.09523810    0.14285714    0.71428571
    0.09523810    0.14285714    0.76190476
    0.09523810    0.14285714    0.80952381
    0.09523810    0.14285714    0.85714286
    0.09523810    0.14285714    0.90476190
    0.09523810    0.14285714    0.95238095
    0.09523810    0.19047619    0.00000000
    0.09523810    0.19047619    0.04761905
    0.09523810    0.19047619    0.09523810
    0.09523810    0.19047619    0.14285714
    0.09523810    0.19047619    0.19047619
    0.09523810    0.19047619    0.23809524
    0.09523810    0.19047619    0.28571429
    0.09523810    0.19047619    0.33333333
    0.09523810    0.19047619    0.38095238
    0.09523810    0.19047619    0.42857143
    0.09523810    0.19047619    0.47619048
    0.09523810    0.19047619    0.52380952
    0.09523810    0.19047619    0.57142857
    0.09523810    0.19047619    0.61904762
    0.09523810    0.19047619    0.66666667
    0.09523810    0.19047619    0.71428571
    0.09523810    0.19047619    0.76190476
    0.09523810    0.19047619    0.80952381
    0.09523810    0.19047619    0.85714286
    0.09523810    0.19047619    0.90476190
    0.09523810    0.19047619    0.95238095
    0.09523810    0.23809524    0.00000000
    0.09523810    0.23809524    0.04761905
    0.09523810    0.23809524    0.09523810
    0.09523810    0.23809524    0.14285714
    0.09523810    0.23809524    0.19047619
    0.09523810    0.23809524    0.23809524
    0.09523810    0.23809524    0.28571429
    0.09523810    0.23809524    0.33333333
    0.09523810    0.23809524    0.38095238
    0.09523810    0.23809524    0.42857143
    0.09523810    0.23809524    0.47619048
    0.09523810    0.23809524    0.52380952
    0.09523810    0.23809524    0.57142857
    0.09523810    0.23809524    0.61904762
    0.09523810    0.23809524    0.66666667
    0.09523810    0.23809524    0.71428571
    0.09523810    0.23809524    0.76190476
    0.09523810    0.23809524    0.80952381
    0.09523810    0.23809524    0.85714286
    0.09523810    0.23809524    0.90476190
    0.09523810    0.23809524    0.95238095
    0.09523810    0.28571429    0.00000000
    0.09523810    0.28571429    0.04761905
    0.09523810    0.28571429    0.09523810
    0.09523810    0.28571429    0.14285714
    0.09523810    0.28571429    0.19047619
    0.09523810    0.28571429    0.23809524
    0.09523810    0.28571429    0.28571429
    0.09523810    0.28571429    0.33333333
    0.09523810    0.28571429    0.38095238
    0.09523810    0.28571429    0.42857143
    0.09523810    0.28571429    0.47619048
    0.09523810    0.28571429    0.52380952
    0.09523810    0.28571429    0.57142857
    0.09523810    0.28571429    0.61904762
    0.09523810    0.28571429    0.66666667
    0.09523810    0.28571429    0.71428571
    0.09523810    0.28571429    0.76190476
    0.09523810    0.28571429    0.80952381
    0.09523810    0.28571429    0.85714286
    0.09523810    0.28571429    0.90476190
    0.09523810    0.28571429    0.95238095
    0.09523810    0.33333333    0.00000000
    0.09523810    0.33333333    0.04761905
    0.09523810    0.33333333    0.09523810
    0.09523810    0.33333333    0.14285714
    0.09523810    0.33333333    0.19047619
    0.09523810    0.33333333    0.23809524
    0.09523810    0.33333333    0.28571429
    0.09523810    0.33333333    0.33333333
    0.09523810    0.33333333    0.38095238
    0.09523810    0.33333333    0.42857143
    0.09523810    0.33333333    0.47619048
    0.09523810    0.33333333    0.52380952
    0.09523810    0.33333333    0.57142857
    0.09523810    0.33333333    0.61904762
    0.09523810    0.33333333    0.66666667
    0.09523810    0.33333333    0.71428571
    0.09523810    0.33333333    0.76190476
    0.09523810    0.33333333    0.80952381
    0.09523810    0.33333333    0.85714286
    0.09523810    0.33333333    0.90476190
    0.09523810    0.33333333    0.95238095
    0.09523810    0.38095238    0.00000000
    0.09523810    0.38095238    0.04761905
    0.09523810    0.38095238    0.09523810
    0.09523810    0.38095238    0.14285714
    0.09523810    0.38095238    0.19047619
    0.09523810    0.38095238    0.23809524
    0.09523810    0.38095238    0.28571429
    0.09523810    0.38095238    0.33333333
    0.09523810    0.38095238    0.38095238
    0.09523810    0.38095238    0.42857143
    0.09523810    0.38095238    0.47619048
    0.09523810    0.38095238    0.52380952
    0.09523810    0.38095238    0.57142857
    0.09523810    0.38095238    0.61904762
    0.09523810    0.38095238    0.66666667
    0.09523810    0.38095238    0.71428571
    0.09523810    0.38095238    0.76190476
    0.09523810    0.38095238    0.80952381
    0.09523810    0.38095238    0.85714286
    0.09523810    0.38095238    0.90476190
    0.09523810    0.38095238    0.95238095
    0.09523810    0.42857143    0.00000000
    0.09523810    0.42857143    0.04761905
    0.09523810    0.42857143    0.09523810
    0.09523810    0.42857143    0.14285714
    0.09523810    0.42857143    0.19047619
    0.09523810    0.42857143    0.23809524
    0.09523810    0.42857143    0.28571429
    0.09523810    0.42857143    0.33333333
    0.09523810    0.42857143    0.38095238
    0.09523810    0.42857143    0.42857143
    0.09523810    0.42857143    0.47619048
    0.09523810    0.42857143    0.52380952
    0.09523810    0.42857143    0.57142857
    0.09523810    0.42857143    0.61904762
    0.09523810    0.42857143    0.66666667
    0.09523810    0.42857143    0.71428571
    0.09523810    0.42857143    0.76190476
    0.09523810    0.42857143    0.80952381
    0.09523810    0.42857143    0.85714286
    0.09523810    0.42857143    0.90476190
    0.09523810    0.42857143    0.95238095
    0.09523810    0.47619048    0.00000000
    0.09523810    0.47619048    0.04761905
    0.09523810    0.47619048    0.09523810
    0.09523810    0.47619048    0.14285714
    0.09523810    0.47619048    0.19047619
    0.09523810    0.47619048    0.23809524
    0.09523810    0.47619048    0.28571429
    0.09523810    0.47619048    0.33333333
    0.09523810    0.47619048    0.38095238
    0.09523810    0.47619048    0.42857143
    0.09523810    0.47619048    0.47619048
    0.09523810    0.47619048    0.52380952
    0.09523810    0.47619048    0.57142857
    0.09523810    0.47619048    0.61904762
    0.09523810    0.47619048    0.66666667
    0.09523810    0.47619048    0.71428571
    0.09523810    0.47619048    0.76190476
    0.09523810    0.47619048    0.80952381
    0.09523810    0.47619048    0.85714286
    0.09523810    0.47619048    0.90476190
    0.09523810    0.47619048    0.95238095
    0.09523810    0.52380952    0.00000000
    0.09523810    0.52380952    0.04761905
    0.09523810    0.52380952    0.09523810
    0.09523810    0.52380952    0.14285714
    0.09523810    0.52380952    0.19047619
    0.09523810    0.52380952    0.23809524
    0.09523810    0.52380952    0.28571429
    0.09523810    0.52380952    0.33333333
    0.09523810    0.52380952    0.38095238
    0.09523810    0.52380952    0.42857143
    0.09523810    0.52380952    0.47619048
    0.09523810    0.52380952    0.52380952
    0.09523810    0.52380952    0.57142857
    0.09523810    0.52380952    0.61904762
    0.09523810    0.52380952    0.66666667
    0.09523810    0.52380952    0.71428571
    0.09523810    0.52380952    0.76190476
    0.09523810    0.52380952    0.80952381
    0.09523810    0.52380952    0.85714286
    0.09523810    0.52380952    0.90476190
    0.09523810    0.52380952    0.95238095
    0.09523810    0.57142857    0.00000000
    0.09523810    0.57142857    0.04761905
    0.09523810    0.57142857    0.09523810
    0.09523810    0.57142857    0.14285714
    0.09523810    0.57142857    0.19047619
    0.09523810    0.57142857    0.23809524
    0.09523810    0.57142857    0.28571429
    0.09523810    0.57142857    0.33333333
    0.09523810    0.57142857    0.38095238
    0.09523810    0.57142857    0.42857143
    0.09523810    0.57142857    0.47619048
    0.09523810    0.57142857    0.52380952
    0.09523810    0.57142857    0.57142857
    0.09523810    0.57142857    0.61904762
    0.09523810    0.57142857    0.66666667
    0.09523810    0.57142857    0.71428571
    0.09523810    0.57142857    0.76190476
    0.09523810    0.57142857    0.80952381
    0.09523810    0.57142857    0.85714286
    0.09523810    0.57142857    0.90476190
    0.09523810    0.57142857    0.95238095
    0.09523810    0.61904762    0.00000000
    0.09523810    0.61904762    0.04761905
    0.09523810    0.61904762    0.09523810
    0.09523810    0.61904762    0.14285714
    0.09523810    0.61904762    0.19047619
    0.09523810    0.61904762    0.23809524
    0.09523810    0.61904762    0.28571429
    0.09523810    0.61904762    0.33333333
    0.09523810    0.61904762    0.38095238
    0.09523810    0.61904762    0.42857143
    0.09523810    0.61904762    0.47619048
    0.09523810    0.61904762    0.52380952
    0.09523810    0.61904762    0.57142857
    0.09523810    0.61904762    0.61904762
    0.09523810    0.61904762    0.66666667
    0.09523810    0.61904762    0.71428571
    0.09523810    0.61904762    0.76190476
    0.09523810    0.61904762    0.80952381
    0.09523810    0.61904762    0.85714286
    0.09523810    0.61904762    0.90476190
    0.09523810    0.61904762    0.95238095
    0.09523810    0.66666667    0.00000000
    0.09523810    0.66666667    0.04761905
    0.09523810    0.66666667    0.09523810
    0.09523810    0.66666667    0.14285714
    0.09523810    0.66666667    0.19047619
    0.09523810    0.66666667    0.23809524
    0.09523810    0.66666667    0.28571429
    0.09523810    0.66666667    0.33333333
    0.09523810    0.66666667    0.38095238
    0.09523810    0.66666667    0.42857143
    0.09523810    0.66666667    0.47619048
    0.09523810    0.66666667    0.52380952
    0.09523810    0.66666667    0.57142857
    0.09523810    0.66666667    0.61904762
    0.09523810    0.66666667    0.66666667
    0.09523810    0.66666667    0.71428571
    0.09523810    0.66666667    0.76190476
    0.09523810    0.66666667    0.80952381
    0.09523810    0.66666667    0.85714286
    0.09523810    0.66666667    0.90476190
    0.09523810    0.66666667    0.95238095
    0.09523810    0.71428571    0.00000000
    0.09523810    0.71428571    0.04761905
    0.09523810    0.71428571    0.09523810
    0.09523810    0.71428571    0.14285714
    0.09523810    0.71428571    0.19047619
    0.09523810    0.71428571    0.23809524
    0.09523810    0.71428571    0.28571429
    0.09523810    0.71428571    0.33333333
    0.09523810    0.71428571    0.38095238
    0.09523810    0.71428571    0.42857143
    0.09523810    0.71428571    0.47619048
    0.09523810    0.71428571    0.52380952
    0.09523810    0.71428571    0.57142857
    0.09523810    0.71428571    0.61904762
    0.09523810    0.71428571    0.66666667
    0.09523810    0.71428571    0.71428571
    0.09523810    0.71428571    0.76190476
    0.09523810    0.71428571    0.80952381
    0.09523810    0.71428571    0.85714286
    0.09523810    0.71428571    0.90476190
    0.09523810    0.71428571    0.95238095
    0.09523810    0.76190476    0.00000000
    0.09523810    0.76190476    0.04761905
    0.09523810    0.76190476    0.09523810
    0.09523810    0.76190476    0.14285714
    0.09523810    0.76190476    0.19047619
    0.09523810    0.76190476    0.23809524
    0.09523810    0.76190476    0.28571429
    0.09523810    0.76190476    0.33333333
    0.09523810    0.76190476    0.38095238
    0.09523810    0.76190476    0.42857143
    0.09523810    0.76190476    0.47619048
    0.09523810    0.76190476    0.52380952
    0.09523810    0.76190476    0.57142857
    0.09523810    0.76190476    0.61904762
    0.09523810    0.76190476    0.66666667
    0.09523810    0.76190476    0.71428571
    0.09523810    0.76190476    0.76190476
    0.09523810    0.76190476    0.80952381
    0.09523810    0.76190476    0.85714286
    0.09523810    0.76190476    0.90476190
    0.09523810    0.76190476    0.95238095
    0.09523810    0.80952381    0.00000000
    0.09523810    0.80952381    0.04761905
    0.09523810    0.80952381    0.09523810
    0.09523810    0.80952381    0.14285714
    0.09523810    0.80952381    0.19047619
    0.09523810    0.80952381    0.23809524
    0.09523810    0.80952381    0.28571429
    0.09523810    0.80952381    0.33333333
    0.09523810    0.80952381    0.38095238
    0.09523810    0.80952381    0.42857143
    0.09523810    0.80952381    0.47619048
    0.09523810    0.80952381    0.52380952
    0.09523810    0.80952381    0.57142857
    0.09523810    0.80952381    0.61904762
    0.09523810    0.80952381    0.66666667
    0.09523810    0.80952381    0.71428571
    0.09523810    0.80952381    0.76190476
    0.09523810    0.80952381    0.80952381
    0.09523810    0.80952381    0.85714286
    0.09523810    0.80952381    0.90476190
    0.09523810    0.80952381    0.95238095
    0.09523810    0.85714286    0.00000000
    0.09523810    0.85714286    0.04761905
    0.09523810    0.85714286    0.09523810
    0.09523810    0.85714286    0.14285714
    0.09523810    0.85714286    0.19047619
    0.09523810    0.85714286    0.23809524
    0.09523810    0.85714286    0.28571429
    0.09523810    0.85714286    0.33333333
    0.09523810    0.85714286    0.38095238
    0.09523810    0.85714286    0.42857143
    0.09523810    0.85714286    0.47619048
    0.09523810    0.85714286    0.52380952
    0.09523810    0.85714286    0.57142857
    0.09523810    0.85714286    0.61904762
    0.09523810    0.85714286    0.66666667
    0.09523810    0.85714286    0.71428571
    0.09523810    0.85714286    0.76190476
    0.09523810    0.85714286    0.80952381
    0.09523810    0.85714286    0.85714286
    0.09523810    0.85714286    0.90476190
    0.09523810    0.85714286    0.95238095
    0.09523810    0.90476190    0.00000000
    0.09523810    0.90476190    0.04761905
    0.09523810    0.90476190    0.09523810
    0.09523810    0.90476190    0.14285714
    0.09523810    0.90476190    0.19047619
    0.09523810    0.90476190    0.23809524
    0.09523810    0.90476190    0.28571429
    0.09523810    0.90476190    0.33333333
    0.09523810    0.90476190    0.38095238
    0.09523810    0.90476190    0.42857143
    0.09523810    0.90476190    0.47619048
    0.09523810    0.90476190    0.52380952
    0.09523810    0.90476190    0.57142857
    0.09523810    0.90476190    0.61904762
    0.09523810    0.90476190    0.66666667
    0.09523810    0.90476190    0.71428571
    0.09523810    0.90476190    0.76190476
    0.09523810    0.90476190    0.80952381
    0.09523810    0.90476190    0.85714286
    0.09523810    0.90476190    0.90476190
    0.09523810    0.90476190    0.95238095
    0.09523810    0.95238095    0.00000000
    0.09523810    0.95238095    0.04761905
    0.09523810    0.95238095    0.09523810
    0.09523810    0.95238095    0.14285714
    0.09523810    0.95238095    0.19047619
    0.09523810    0.95238095    0.23809524
    0.09523810    0.95238095    0.28571429
    0.09523810    0.95238095    0.33333333
    0.09523810    0.95238095    0.38095238
    0.09523810    0.95238095    0.42857143
    0.09523810    0.95238095    0.47619048
    0.09523810    0.95238095    0.52380952
    0.09523810    0.95238095    0.57142857
    0.09523810    0.95238095    0.61904762
    0.09523810    0.95238095    0.66666667
    0.09523810    0.95238095    0.71428571
    0.09523810    0.95238095    0.76190476
    0.09523810    0.95238095    0.80952381
    0.09523810    0.95238095    0.85714286
    0.09523810    0.95238095    0.90476190
    0.09523810    0.95238095    0.95238095
    0.14285714    0.00000000    0.00000000
    0.14285714    0.00000000    0.04761905
    0.14285714    0.00000000    0.09523810
    0.14285714    0.00000000    0.14285714
    0.14285714    0.00000000    0.19047619
    0.14285714    0.00000000    0.23809524
    0.14285714    0.00000000    0.28571429
    0.14285714    0.00000000    0.33333333
    0.14285714    0.00000000    0.38095238
    0.14285714    0.00000000    0.42857143
    0.14285714    0.00000000    0.47619048
    0.14285714    0.00000000    0.52380952
    0.14285714    0.00000000    0.57142857
    0.14285714    0.00000000    0.61904762
    0.14285714    0.00000000    0.66666667
    0.14285714    0.00000000    0.71428571
    0.14285714    0.00000000    0.76190476
    0.14285714    0.00000000    0.80952381
    0.14285714    0.00000000    0.85714286
    0.14285714    0.00000000    0.90476190
    0.14285714    0.00000000    0.95238095
    0.14285714    0.04761905    0.00000000
    0.14285714    0.04761905    0.04761905
    0.14285714    0.04761905    0.09523810
    0.14285714    0.04761905    0.14285714
    0.14285714    0.04761905    0.19047619
    0.14285714    0.04761905    0.23809524
    0.14285714    0.04761905    0.28571429
    0.14285714    0.04761905    0.33333333
    0.14285714    0.04761905    0.38095238
    0.14285714    0.04761905    0.42857143
    0.14285714    0.04761905    0.47619048
    0.14285714    0.04761905    0.52380952
    0.14285714    0.04761905    0.57142857
    0.14285714    0.04761905    0.61904762
    0.14285714    0.04761905    0.66666667
    0.14285714    0.04761905    0.71428571
    0.14285714    0.04761905    0.76190476
    0.14285714    0.04761905    0.80952381
    0.14285714    0.04761905    0.85714286
    0.14285714    0.04761905    0.90476190
    0.14285714    0.04761905    0.95238095
    0.14285714    0.09523810    0.00000000
    0.14285714    0.09523810    0.04761905
    0.14285714    0.09523810    0.09523810
    0.14285714    0.09523810    0.14285714
    0.14285714    0.09523810    0.19047619
    0.14285714    0.09523810    0.23809524
    0.14285714    0.09523810    0.28571429
    0.14285714    0.09523810    0.33333333
    0.14285714    0.09523810    0.38095238
    0.14285714    0.09523810    0.42857143
    0.14285714    0.09523810    0.47619048
    0.14285714    0.09523810    0.52380952
    0.14285714    0.09523810    0.57142857
    0.14285714    0.09523810    0.61904762
    0.14285714    0.09523810    0.66666667
    0.14285714    0.09523810    0.71428571
    0.14285714    0.09523810    0.76190476
    0.14285714    0.09523810    0.80952381
    0.14285714    0.09523810    0.85714286
    0.14285714    0.09523810    0.90476190
    0.14285714    0.09523810    0.95238095
    0.14285714    0.14285714    0.00000000
    0.14285714    0.14285714    0.04761905
    0.14285714    0.14285714    0.09523810
    0.14285714    0.14285714    0.14285714
    0.14285714    0.14285714    0.19047619
    0.14285714    0.14285714    0.23809524
    0.14285714    0.14285714    0.28571429
    0.14285714    0.14285714    0.33333333
    0.14285714    0.14285714    0.38095238
    0.14285714    0.14285714    0.42857143
    0.14285714    0.14285714    0.47619048
    0.14285714    0.14285714    0.52380952
    0.14285714    0.14285714    0.57142857
    0.14285714    0.14285714    0.61904762
    0.14285714    0.14285714    0.66666667
    0.14285714    0.14285714    0.71428571
    0.14285714    0.14285714    0.76190476
    0.14285714    0.14285714    0.80952381
    0.14285714    0.14285714    0.85714286
    0.14285714    0.14285714    0.90476190
    0.14285714    0.14285714    0.95238095
    0.14285714    0.19047619    0.00000000
    0.14285714    0.19047619    0.04761905
    0.14285714    0.19047619    0.09523810
    0.14285714    0.19047619    0.14285714
    0.14285714    0.19047619    0.19047619
    0.14285714    0.19047619    0.23809524
    0.14285714    0.19047619    0.28571429
    0.14285714    0.19047619    0.33333333
    0.14285714    0.19047619    0.38095238
    0.14285714    0.19047619    0.42857143
    0.14285714    0.19047619    0.47619048
    0.14285714    0.19047619    0.52380952
    0.14285714    0.19047619    0.57142857
    0.14285714    0.19047619    0.61904762
    0.14285714    0.19047619    0.66666667
    0.14285714    0.19047619    0.71428571
    0.14285714    0.19047619    0.76190476
    0.14285714    0.19047619    0.80952381
    0.14285714    0.19047619    0.85714286
    0.14285714    0.19047619    0.90476190
    0.14285714    0.19047619    0.95238095
    0.14285714    0.23809524    0.00000000
    0.14285714    0.23809524    0.04761905
    0.14285714    0.23809524    0.09523810
    0.14285714    0.23809524    0.14285714
    0.14285714    0.23809524    0.19047619
    0.14285714    0.23809524    0.23809524
    0.14285714    0.23809524    0.28571429
    0.14285714    0.23809524    0.33333333
    0.14285714    0.23809524    0.38095238
    0.14285714    0.23809524    0.42857143
    0.14285714    0.23809524    0.47619048
    0.14285714    0.23809524    0.52380952
    0.14285714    0.23809524    0.57142857
    0.14285714    0.23809524    0.61904762
    0.14285714    0.23809524    0.66666667
    0.14285714    0.23809524    0.71428571
    0.14285714    0.23809524    0.76190476
    0.14285714    0.23809524    0.80952381
    0.14285714    0.23809524    0.85714286
    0.14285714    0.23809524    0.90476190
    0.14285714    0.23809524    0.95238095
    0.14285714    0.28571429    0.00000000
    0.14285714    0.28571429    0.04761905
    0.14285714    0.28571429    0.09523810
    0.14285714    0.28571429    0.14285714
    0.14285714    0.28571429    0.19047619
    0.14285714    0.28571429    0.23809524
    0.14285714    0.28571429    0.28571429
    0.14285714    0.28571429    0.33333333
    0.14285714    0.28571429    0.38095238
    0.14285714    0.28571429    0.42857143
    0.14285714    0.28571429    0.47619048
    0.14285714    0.28571429    0.52380952
    0.14285714    0.28571429    0.57142857
    0.14285714    0.28571429    0.61904762
    0.14285714    0.28571429    0.66666667
    0.14285714    0.28571429    0.71428571
    0.14285714    0.28571429    0.76190476
    0.14285714    0.28571429    0.80952381
    0.14285714    0.28571429    0.85714286
    0.14285714    0.28571429    0.90476190
    0.14285714    0.28571429    0.95238095
    0.14285714    0.33333333    0.00000000
    0.14285714    0.33333333    0.04761905
    0.14285714    0.33333333    0.09523810
    0.14285714    0.33333333    0.14285714
    0.14285714    0.33333333    0.19047619
    0.14285714    0.33333333    0.23809524
    0.14285714    0.33333333    0.28571429
    0.14285714    0.33333333    0.33333333
    0.14285714    0.33333333    0.38095238
    0.14285714    0.33333333    0.42857143
    0.14285714    0.33333333    0.47619048
    0.14285714    0.33333333    0.52380952
    0.14285714    0.33333333    0.57142857
    0.14285714    0.33333333    0.61904762
    0.14285714    0.33333333    0.66666667
    0.14285714    0.33333333    0.71428571
    0.14285714    0.33333333    0.76190476
    0.14285714    0.33333333    0.80952381
    0.14285714    0.33333333    0.85714286
    0.14285714    0.33333333    0.90476190
    0.14285714    0.33333333    0.95238095
    0.14285714    0.38095238    0.00000000
    0.14285714    0.38095238    0.04761905
    0.14285714    0.38095238    0.09523810
    0.14285714    0.38095238    0.14285714
    0.14285714    0.38095238    0.19047619
    0.14285714    0.38095238    0.23809524
    0.14285714    0.38095238    0.28571429
    0.14285714    0.38095238    0.33333333
    0.14285714    0.38095238    0.38095238
    0.14285714    0.38095238    0.42857143
    0.14285714    0.38095238    0.47619048
    0.14285714    0.38095238    0.52380952
    0.14285714    0.38095238    0.57142857
    0.14285714    0.38095238    0.61904762
    0.14285714    0.38095238    0.66666667
    0.14285714    0.38095238    0.71428571
    0.14285714    0.38095238    0.76190476
    0.14285714    0.38095238    0.80952381
    0.14285714    0.38095238    0.85714286
    0.14285714    0.38095238    0.90476190
    0.14285714    0.38095238    0.95238095
    0.14285714    0.42857143    0.00000000
    0.14285714    0.42857143    0.04761905
    0.14285714    0.42857143    0.09523810
    0.14285714    0.42857143    0.14285714
    0.14285714    0.42857143    0.19047619
    0.14285714    0.42857143    0.23809524
    0.14285714    0.42857143    0.28571429
    0.14285714    0.42857143    0.33333333
    0.14285714    0.42857143    0.38095238
    0.14285714    0.42857143    0.42857143
    0.14285714    0.42857143    0.47619048
    0.14285714    0.42857143    0.52380952
    0.14285714    0.42857143    0.57142857
    0.14285714    0.42857143    0.61904762
    0.14285714    0.42857143    0.66666667
    0.14285714    0.42857143    0.71428571
    0.14285714    0.42857143    0.76190476
    0.14285714    0.42857143    0.80952381
    0.14285714    0.42857143    0.85714286
    0.14285714    0.42857143    0.90476190
    0.14285714    0.42857143    0.95238095
    0.14285714    0.47619048    0.00000000
    0.14285714    0.47619048    0.04761905
    0.14285714    0.47619048    0.09523810
    0.14285714    0.47619048    0.14285714
    0.14285714    0.47619048    0.19047619
    0.14285714    0.47619048    0.23809524
    0.14285714    0.47619048    0.28571429
    0.14285714    0.47619048    0.33333333
    0.14285714    0.47619048    0.38095238
    0.14285714    0.47619048    0.42857143
    0.14285714    0.47619048    0.47619048
    0.14285714    0.47619048    0.52380952
    0.14285714    0.47619048    0.57142857
    0.14285714    0.47619048    0.61904762
    0.14285714    0.47619048    0.66666667
    0.14285714    0.47619048    0.71428571
    0.14285714    0.47619048    0.76190476
    0.14285714    0.47619048    0.80952381
    0.14285714    0.47619048    0.85714286
    0.14285714    0.47619048    0.90476190
    0.14285714    0.47619048    0.95238095
    0.14285714    0.52380952    0.00000000
    0.14285714    0.52380952    0.04761905
    0.14285714    0.52380952    0.09523810
    0.14285714    0.52380952    0.14285714
    0.14285714    0.52380952    0.19047619
    0.14285714    0.52380952    0.23809524
    0.14285714    0.52380952    0.28571429
    0.14285714    0.52380952    0.33333333
    0.14285714    0.52380952    0.38095238
    0.14285714    0.52380952    0.42857143
    0.14285714    0.52380952    0.47619048
    0.14285714    0.52380952    0.52380952
    0.14285714    0.52380952    0.57142857
    0.14285714    0.52380952    0.61904762
    0.14285714    0.52380952    0.66666667
    0.14285714    0.52380952    0.71428571
    0.14285714    0.52380952    0.76190476
    0.14285714    0.52380952    0.80952381
    0.14285714    0.52380952    0.85714286
    0.14285714    0.52380952    0.90476190
    0.14285714    0.52380952    0.95238095
    0.14285714    0.57142857    0.00000000
    0.14285714    0.57142857    0.04761905
    0.14285714    0.57142857    0.09523810
    0.14285714    0.57142857    0.14285714
    0.14285714    0.57142857    0.19047619
    0.14285714    0.57142857    0.23809524
    0.14285714    0.57142857    0.28571429
    0.14285714    0.57142857    0.33333333
    0.14285714    0.57142857    0.38095238
    0.14285714    0.57142857    0.42857143
    0.14285714    0.57142857    0.47619048
    0.14285714    0.57142857    0.52380952
    0.14285714    0.57142857    0.57142857
    0.14285714    0.57142857    0.61904762
    0.14285714    0.57142857    0.66666667
    0.14285714    0.57142857    0.71428571
    0.14285714    0.57142857    0.76190476
    0.14285714    0.57142857    0.80952381
    0.14285714    0.57142857    0.85714286
    0.14285714    0.57142857    0.90476190
    0.14285714    0.57142857    0.95238095
    0.14285714    0.61904762    0.00000000
    0.14285714    0.61904762    0.04761905
    0.14285714    0.61904762    0.09523810
    0.14285714    0.61904762    0.14285714
    0.14285714    0.61904762    0.19047619
    0.14285714    0.61904762    0.23809524
    0.14285714    0.61904762    0.28571429
    0.14285714    0.61904762    0.33333333
    0.14285714    0.61904762    0.38095238
    0.14285714    0.61904762    0.42857143
    0.14285714    0.61904762    0.47619048
    0.14285714    0.61904762    0.52380952
    0.14285714    0.61904762    0.57142857
    0.14285714    0.61904762    0.61904762
    0.14285714    0.61904762    0.66666667
    0.14285714    0.61904762    0.71428571
    0.14285714    0.61904762    0.76190476
    0.14285714    0.61904762    0.80952381
    0.14285714    0.61904762    0.85714286
    0.14285714    0.61904762    0.90476190
    0.14285714    0.61904762    0.95238095
    0.14285714    0.66666667    0.00000000
    0.14285714    0.66666667    0.04761905
    0.14285714    0.66666667    0.09523810
    0.14285714    0.66666667    0.14285714
    0.14285714    0.66666667    0.19047619
    0.14285714    0.66666667    0.23809524
    0.14285714    0.66666667    0.28571429
    0.14285714    0.66666667    0.33333333
    0.14285714    0.66666667    0.38095238
    0.14285714    0.66666667    0.42857143
    0.14285714    0.66666667    0.47619048
    0.14285714    0.66666667    0.52380952
    0.14285714    0.66666667    0.57142857
    0.14285714    0.66666667    0.61904762
    0.14285714    0.66666667    0.66666667
    0.14285714    0.66666667    0.71428571
    0.14285714    0.66666667    0.76190476
    0.14285714    0.66666667    0.80952381
    0.14285714    0.66666667    0.85714286
    0.14285714    0.66666667    0.90476190
    0.14285714    0.66666667    0.95238095
    0.14285714    0.71428571    0.00000000
    0.14285714    0.71428571    0.04761905
    0.14285714    0.71428571    0.09523810
    0.14285714    0.71428571    0.14285714
    0.14285714    0.71428571    0.19047619
    0.14285714    0.71428571    0.23809524
    0.14285714    0.71428571    0.28571429
    0.14285714    0.71428571    0.33333333
    0.14285714    0.71428571    0.38095238
    0.14285714    0.71428571    0.42857143
    0.14285714    0.71428571    0.47619048
    0.14285714    0.71428571    0.52380952
    0.14285714    0.71428571    0.57142857
    0.14285714    0.71428571    0.61904762
    0.14285714    0.71428571    0.66666667
    0.14285714    0.71428571    0.71428571
    0.14285714    0.71428571    0.76190476
    0.14285714    0.71428571    0.80952381
    0.14285714    0.71428571    0.85714286
    0.14285714    0.71428571    0.90476190
    0.14285714    0.71428571    0.95238095
    0.14285714    0.76190476    0.00000000
    0.14285714    0.76190476    0.04761905
    0.14285714    0.76190476    0.09523810
    0.14285714    0.76190476    0.14285714
    0.14285714    0.76190476    0.19047619
    0.14285714    0.76190476    0.23809524
    0.14285714    0.76190476    0.28571429
    0.14285714    0.76190476    0.33333333
    0.14285714    0.76190476    0.38095238
    0.14285714    0.76190476    0.42857143
    0.14285714    0.76190476    0.47619048
    0.14285714    0.76190476    0.52380952
    0.14285714    0.76190476    0.57142857
    0.14285714    0.76190476    0.61904762
    0.14285714    0.76190476    0.66666667
    0.14285714    0.76190476    0.71428571
    0.14285714    0.76190476    0.76190476
    0.14285714    0.76190476    0.80952381
    0.14285714    0.76190476    0.85714286
    0.14285714    0.76190476    0.90476190
    0.14285714    0.76190476    0.95238095
    0.14285714    0.80952381    0.00000000
    0.14285714    0.80952381    0.04761905
    0.14285714    0.80952381    0.09523810
    0.14285714    0.80952381    0.14285714
    0.14285714    0.80952381    0.19047619
    0.14285714    0.80952381    0.23809524
    0.14285714    0.80952381    0.28571429
    0.14285714    0.80952381    0.33333333
    0.14285714    0.80952381    0.38095238
    0.14285714    0.80952381    0.42857143
    0.14285714    0.80952381    0.47619048
    0.14285714    0.80952381    0.52380952
    0.14285714    0.80952381    0.57142857
    0.14285714    0.80952381    0.61904762
    0.14285714    0.80952381    0.66666667
    0.14285714    0.80952381    0.71428571
    0.14285714    0.80952381    0.76190476
    0.14285714    0.80952381    0.80952381
    0.14285714    0.80952381    0.85714286
    0.14285714    0.80952381    0.90476190
    0.14285714    0.80952381    0.95238095
    0.14285714    0.85714286    0.00000000
    0.14285714    0.85714286    0.04761905
    0.14285714    0.85714286    0.09523810
    0.14285714    0.85714286    0.14285714
    0.14285714    0.85714286    0.19047619
    0.14285714    0.85714286    0.23809524
    0.14285714    0.85714286    0.28571429
    0.14285714    0.85714286    0.33333333
    0.14285714    0.85714286    0.38095238
    0.14285714    0.85714286    0.42857143
    0.14285714    0.85714286    0.47619048
    0.14285714    0.85714286    0.52380952
    0.14285714    0.85714286    0.57142857
    0.14285714    0.85714286    0.61904762
    0.14285714    0.85714286    0.66666667
    0.14285714    0.85714286    0.71428571
    0.14285714    0.85714286    0.76190476
    0.14285714    0.85714286    0.80952381
    0.14285714    0.85714286    0.85714286
    0.14285714    0.85714286    0.90476190
    0.14285714    0.85714286    0.95238095
    0.14285714    0.90476190    0.00000000
    0.14285714    0.90476190    0.04761905
    0.14285714    0.90476190    0.09523810
    0.14285714    0.90476190    0.14285714
    0.14285714    0.90476190    0.19047619
    0.14285714    0.90476190    0.23809524
    0.14285714    0.90476190    0.28571429
    0.14285714    0.90476190    0.33333333
    0.14285714    0.90476190    0.38095238
    0.14285714    0.90476190    0.42857143
    0.14285714    0.90476190    0.47619048
    0.14285714    0.90476190    0.52380952
    0.14285714    0.90476190    0.57142857
    0.14285714    0.90476190    0.61904762
    0.14285714    0.90476190    0.66666667
    0.14285714    0.90476190    0.71428571
    0.14285714    0.90476190    0.76190476
    0.14285714    0.90476190    0.80952381
    0.14285714    0.90476190    0.85714286
    0.14285714    0.90476190    0.90476190
    0.14285714    0.90476190    0.95238095
    0.14285714    0.95238095    0.00000000
    0.14285714    0.95238095    0.04761905
    0.14285714    0.95238095    0.09523810
    0.14285714    0.95238095    0.14285714
    0.14285714    0.95238095    0.19047619
    0.14285714    0.95238095    0.23809524
    0.14285714    0.95238095    0.28571429
    0.14285714    0.95238095    0.33333333
    0.14285714    0.95238095    0.38095238
    0.14285714    0.95238095    0.42857143
    0.14285714    0.95238095    0.47619048
    0.14285714    0.95238095    0.52380952
    0.14285714    0.95238095    0.57142857
    0.14285714    0.95238095    0.61904762
    0.14285714    0.95238095    0.66666667
    0.14285714    0.95238095    0.71428571
    0.14285714    0.95238095    0.76190476
    0.14285714    0.95238095    0.80952381
    0.14285714    0.95238095    0.85714286
    0.14285714    0.95238095    0.90476190
    0.14285714    0.95238095    0.95238095
    0.19047619    0.00000000    0.00000000
    0.19047619    0.00000000    0.04761905
    0.19047619    0.00000000    0.09523810
    0.19047619    0.00000000    0.14285714
    0.19047619    0.00000000    0.19047619
    0.19047619    0.00000000    0.23809524
    0.19047619    0.00000000    0.28571429
    0.19047619    0.00000000    0.33333333
    0.19047619    0.00000000    0.38095238
    0.19047619    0.00000000    0.42857143
    0.19047619    0.00000000    0.47619048
    0.19047619    0.00000000    0.52380952
    0.19047619    0.00000000    0.57142857
    0.19047619    0.00000000    0.61904762
    0.19047619    0.00000000    0.66666667
    0.19047619    0.00000000    0.71428571
    0.19047619    0.00000000    0.76190476
    0.19047619    0.00000000    0.80952381
    0.19047619    0.00000000    0.85714286
    0.19047619    0.00000000    0.90476190
    0.19047619    0.00000000    0.95238095
    0.19047619    0.04761905    0.00000000
    0.19047619    0.04761905    0.04761905
    0.19047619    0.04761905    0.09523810
    0.19047619    0.04761905    0.14285714
    0.19047619    0.04761905    0.19047619
    0.19047619    0.04761905    0.23809524
    0.19047619    0.04761905    0.28571429
    0.19047619    0.04761905    0.33333333
    0.19047619    0.04761905    0.38095238
    0.19047619    0.04761905    0.42857143
    0.19047619    0.04761905    0.47619048
    0.19047619    0.04761905    0.52380952
    0.19047619    0.04761905    0.57142857
    0.19047619    0.04761905    0.61904762
    0.19047619    0.04761905    0.66666667
    0.19047619    0.04761905    0.71428571
    0.19047619    0.04761905    0.76190476
    0.19047619    0.04761905    0.80952381
    0.19047619    0.04761905    0.85714286
    0.19047619    0.04761905    0.90476190
    0.19047619    0.04761905    0.95238095
    0.19047619    0.09523810    0.00000000
    0.19047619    0.09523810    0.04761905
    0.19047619    0.09523810    0.09523810
    0.19047619    0.09523810    0.14285714
    0.19047619    0.09523810    0.19047619
    0.19047619    0.09523810    0.23809524
    0.19047619    0.09523810    0.28571429
    0.19047619    0.09523810    0.33333333
    0.19047619    0.09523810    0.38095238
    0.19047619    0.09523810    0.42857143
    0.19047619    0.09523810    0.47619048
    0.19047619    0.09523810    0.52380952
    0.19047619    0.09523810    0.57142857
    0.19047619    0.09523810    0.61904762
    0.19047619    0.09523810    0.66666667
    0.19047619    0.09523810    0.71428571
    0.19047619    0.09523810    0.76190476
    0.19047619    0.09523810    0.80952381
    0.19047619    0.09523810    0.85714286
    0.19047619    0.09523810    0.90476190
    0.19047619    0.09523810    0.95238095
    0.19047619    0.14285714    0.00000000
    0.19047619    0.14285714    0.04761905
    0.19047619    0.14285714    0.09523810
    0.19047619    0.14285714    0.14285714
    0.19047619    0.14285714    0.19047619
    0.19047619    0.14285714    0.23809524
    0.19047619    0.14285714    0.28571429
    0.19047619    0.14285714    0.33333333
    0.19047619    0.14285714    0.38095238
    0.19047619    0.14285714    0.42857143
    0.19047619    0.14285714    0.47619048
    0.19047619    0.14285714    0.52380952
    0.19047619    0.14285714    0.57142857
    0.19047619    0.14285714    0.61904762
    0.19047619    0.14285714    0.66666667
    0.19047619    0.14285714    0.71428571
    0.19047619    0.14285714    0.76190476
    0.19047619    0.14285714    0.80952381
    0.19047619    0.14285714    0.85714286
    0.19047619    0.14285714    0.90476190
    0.19047619    0.14285714    0.95238095
    0.19047619    0.19047619    0.00000000
    0.19047619    0.19047619    0.04761905
    0.19047619    0.19047619    0.09523810
[...]
  9143  9142      0   0   0
  9143  9144      0   0   0
  9143  9164      0   0   0
  9143   323      1   0   0
  9144  8703      0   0   0
  9144  9123      0   0   0
  9144  9143      0   0   0
  9144  9145      0   0   0
  9144  9165      0   0   0
  9144   324      1   0   0
  9145  8704      0   0   0
  9145  9124      0   0   0
  9145  9144      0   0   0
  9145  9146      0   0   0
  9145  9166      0   0   0
  9145   325      1   0   0
  9146  8705      0   0   0
  9146  9125      0   0   0
  9146  9145      0   0   0
  9146  9147      0   0   0
  9146  9167      0   0   0
  9146   326      1   0   0
  9147  8706      0   0   0
  9147  9126      0   0   0
  9147  9146      0   0   0
  9147  9148      0   0   0
  9147  9168      0   0   0
  9147   327      1   0   0
  9148  8707      0   0   0
  9148  9127      0   0   0
  9148  9147      0   0   0
  9148  9149      0   0   0
  9148  9169      0   0   0
  9148   328      1   0   0
  9149  8708      0   0   0
  9149  9128      0   0   0
  9149  9148      0   0   0
  9149  9150      0   0   0
  9149  9170      0   0   0
  9149   329      1   0   0
  9150  8709      0   0   0
  9150  9129      0   0   0
  9150  9149      0   0   0
  9150  9151      0   0   0
  9150  9171      0   0   0
  9150   330      1   0   0
  9151  8710      0   0   0
  9151  9130      0   0   0
  9151  9150      0   0   0
  9151  9152      0   0   0
  9151  9172      0   0   0
  9151   331      1   0   0
  9152  8711      0   0   0
  9152  9131      0   0   0
  9152  9151      0   0   0
  9152  9153      0   0   0
  9152  9173      0   0   0
  9152   332      1   0   0
  9153  8712      0   0   0
  9153  9132      0   0   0
  9153  9152      0   0   0
  9153  9154      0   0   0
  9153  9174      0   0   0
  9153   333      1   0   0
  9154  8713      0   0   0
  9154  9133      0   0   0
  9154  9153      0   0   0
  9154  9155      0   0   0
  9154  9175      0   0   0
  9154   334      1   0   0
  9155  8714      0   0   0
  9155  9134      0   0   0
  9155  9154      0   0   0
  9155  9156      0   0   0
  9155  9176      0   0   0
  9155   335      1   0   0
  9156  8715      0   0   0
  9156  9135      0   0   0
  9156  9155      0   0   0
  9156  9177      0   0   0
  9156   336      1   0   0
  9156  9136      0   0   1
  9157  8716      0   0   0
  9157  9136      0   0   0
  9157  9158      0   0   0
  9157  9178      0   0   0
  9157   337      1   0   0
  9157  9177      0   0  -1
  9158  8717      0   0   0
  9158  9137      0   0   0
  9158  9157      0   0   0
  9158  9159      0   0   0
  9158  9179      0   0   0
  9158   338      1   0   0
  9159  8718      0   0   0
  9159  9138      0   0   0
  9159  9158      0   0   0
  9159  9160      0   0   0
  9159  9180      0   0   0
  9159   339      1   0   0
  9160  8719      0   0   0
  9160  9139      0   0   0
  9160  9159      0   0   0
  9160  9161      0   0   0
  9160  9181      0   0   0
  9160   340      1   0   0
  9161  8720      0   0   0
  9161  9140      0   0   0
  9161  9160      0   0   0
  9161  9162      0   0   0
  9161  9182      0   0   0
  9161   341      1   0   0
  9162  8721      0   0   0
  9162  9141      0   0   0
  9162  9161      0   0   0
  9162  9163      0   0   0
  9162  9183      0   0   0
  9162   342      1   0   0
  9163  8722      0   0   0
  9163  9142      0   0   0
  9163  9162      0   0   0
  9163  9164      0   0   0
  9163  9184      0   0   0
  9163   343      1   0   0
  9164  8723      0   0   0
  9164  9143      0   0   0
  9164  9163      0   0   0
  9164  9165      0   0   0
  9164  9185      0   0   0
  9164   344      1   0   0
  9165  8724      0   0   0
  9165  9144      0   0   0
  9165  9164      0   0   0
  9165  9166      0   0   0
  9165  9186      0   0   0
  9165   345      1   0   0
  9166  8725      0   0   0
  9166  9145      0   0   0
  9166  9165      0   0   0
  9166  9167      0   0   0
  9166  9187      0   0   0
  9166   346      1   0   0
  9167  8726      0   0   0
  9167  9146      0   0   0
  9167  9166      0   0   0
  9167  9168      0   0   0
  9167  9188      0   0   0
  9167   347      1   0   0
  9168  8727      0   0   0
  9168  9147      0   0   0
  9168  9167      0   0   0
  9168  9169      0   0   0
  9168  9189      0   0   0
  9168   348      1   0   0
  9169  8728      0   0   0
  9169  9148      0   0   0
  9169  9168      0   0   0
  9169  9170      0   0   0
  9169  9190      0   0   0
  9169   349      1   0   0
  9170  8729      0   0   0
  9170  9149      0   0   0
  9170  9169      0   0   0
  9170  9171      0   0   0
  9170  9191      0   0   0
  9170   350      1   0   0
  9171  8730      0   0   0
  9171  9150      0   0   0
  9171  9170      0   0   0
  9171  9172      0   0   0
  9171  9192      0   0   0
  9171   351      1   0   0
  9172  8731      0   0   0
  9172  9151      0   0   0
  9172  9171      0   0   0
  9172  9173      0   0   0
  9172  9193      0   0   0
  9172   352      1   0   0
  9173  8732      0   0   0
  9173  9152      0   0   0
  9173  9172      0   0   0
  9173  9174      0   0   0
  9173  9194      0   0   0
  9173   353      1   0   0
  9174  8733      0   0   0
  9174  9153      0   0   0
  9174  9173      0   0   0
  9174  9175      0   0   0
  9174  9195      0   0   0
  9174   354      1   0   0
  9175  8734      0   0   0
  9175  9154      0   0   0
  9175  9174      0   0   0
  9175  9176      0   0   0
  9175  9196      0   0   0
  9175   355      1   0   0
  9176  8735      0   0   0
  9176  9155      0   0   0
  9176  9175      0   0   0
  9176  9177      0   0   0
  9176  9197      0   0   0
  9176   356      1   0   0
  9177  8736      0   0   0
  9177  9156      0   0   0
  9177  9176      0   0   0
  9177  9198      0   0   0
  9177   357      1   0   0
  9177  9157      0   0   1
  9178  8737      0   0   0
  9178  9157      0   0   0
  9178  9179      0   0   0
  9178  9199      0   0   0
  9178   358      1   0   0
  9178  9198      0   0  -1
  9179  8738      0   0   0
  9179  9158      0   0   0
  9179  9178      0   0   0
  9179  9180      0   0   0
  9179  9200      0   0   0
  9179   359      1   0   0
  9180  8739      0   0   0
  9180  9159      0   0   0
  9180  9179      0   0   0
  9180  9181      0   0   0
  9180  9201      0   0   0
  9180   360      1   0   0
  9181  8740      0   0   0
  9181  9160      0   0   0
  9181  9180      0   0   0
  9181  9182      0   0   0
  9181  9202      0   0   0
  9181   361      1   0   0
  9182  8741      0   0   0
  9182  9161      0   0   0
  9182  9181      0   0   0
  9182  9183      0   0   0
  9182  9203      0   0   0
  9182   362      1   0   0
  9183  8742      0   0   0
  9183  9162      0   0   0
  9183  9182      0   0   0
  9183  9184      0   0   0
  9183  9204      0   0   0
  9183   363      1   0   0
  9184  8743      0   0   0
  9184  9163      0   0   0
  9184  9183      0   0   0
  9184  9185      0   0   0
  9184  9205      0   0   0
  9184   364      1   0   0
  9185  8744      0   0   0
  9185  9164      0   0   0
  9185  9184      0   0   0
  9185  9186      0   0   0
  9185  9206      0   0   0
  9185   365      1   0   0
  9186  8745      0   0   0
  9186  9165      0   0   0
  9186  9185      0   0   0
  9186  9187      0   0   0
  9186  9207      0   0   0
  9186   366      1   0   0
  9187  8746      0   0   0
  9187  9166      0   0   0
  9187  9186      0   0   0
  9187  9188      0   0   0
  9187  9208      0   0   0
  9187   367      1   0   0
  9188  8747      0   0   0
  9188  9167      0   0   0
  9188  9187      0   0   0
  9188  9189      0   0   0
  9188  9209      0   0   0
  9188   368      1   0   0
  9189  8748      0   0   0
  9189  9168      0   0   0
  9189  9188      0   0   0
  9189  9190      0   0   0
  9189  9210      0   0   0
  9189   369      1   0   0
  9190  8749      0   0   0
  9190  9169      0   0   0
  9190  9189      0   0   0
  9190  9191      0   0   0
  9190  9211      0   0   0
  9190   370      1   0   0
  9191  8750      0   0   0
  9191  9170      0   0   0
  9191  9190      0   0   0
  9191  9192      0   0   0
  9191  9212      0   0   0
  9191   371      1   0   0
  9192  8751      0   0   0
  9192  9171      0   0   0
  9192  9191      0   0   0
  9192  9193      0   0   0
  9192  9213      0   0   0
  9192   372      1   0   0
  9193  8752      0   0   0
  9193  9172      0   0   0
  9193  9192      0   0   0
  9193  9194      0   0   0
  9193  9214      0   0   0
  9193   373      1   0   0
  9194  8753      0   0   0
  9194  9173      0   0   0
  9194  9193      0   0   0
  9194  9195      0   0   0
  9194  9215      0   0   0
  9194   374      1   0   0
  9195  8754      0   0   0
  9195  9174      0   0   0
  9195  9194      0   0   0
  9195  9196      0   0   0
  9195  9216      0   0   0
  9195   375      1   0   0
  9196  8755      0   0   0
  9196  9175      0   0   0
  9196  9195      0   0   0
  9196  9197      0   0   0
  9196  9217      0   0   0
  9196   376      1   0   0
  9197  8756      0   0   0
  9197  9176      0   0   0
  9197  9196      0   0   0
  9197  9198      0   0   0
  9197  9218      0   0   0
  9197   377      1   0   0
  9198  8757      0   0   0
  9198  9177      0   0   0
  9198  9197      0   0   0
  9198  9219      0   0   0
  9198   378      1   0   0
  9198  9178      0   0   1
  9199  8758      0   0   0
  9199  9178      0   0   0
  9199  9200      0   0   0
  9199  9220      0   0   0
  9199   379      1   0   0
  9199  9219      0   0  -1
  9200  8759      0   0   0
  9200  9179      0   0   0
  9200  9199      0   0   0
  9200  9201      0   0   0
  9200  9221      0   0   0
  9200   380      1   0   0
  9201  8760      0   0   0
  9201  9180      0   0   0
  9201  9200      0   0   0
  9201  9202      0   0   0
  9201  9222      0   0   0
  9201   381      1   0   0
  9202  8761      0   0   0
  9202  9181      0   0   0
  9202  9201      0   0   0
  9202  9203      0   0   0
  9202  9223      0   0   0
  9202   382      1   0   0
  9203  8762      0   0   0
  9203  9182      0   0   0
  9203  9202      0   0   0
  9203  9204      0   0   0
  9203  9224      0   0   0
  9203   383      1   0   0
  9204  8763      0   0   0
  9204  9183      0   0   0
  9204  9203      0   0   0
  9204  9205      0   0   0
  9204  9225      0   0   0
  9204   384      1   0   0
  9205  8764      0   0   0
  9205  9184      0   0   0
  9205  9204      0   0   0
  9205  9206      0   0   0
  9205  9226      0   0   0
  9205   385      1   0   0
  9206  8765      0   0   0
  9206  9185      0   0   0
  9206  9205      0   0   0
  9206  9207      0   0   0
  9206  9227      0   0   0
  9206   386      1   0   0
  9207  8766      0   0   0
  9207  9186      0   0   0
  9207  9206      0   0   0
  9207  9208      0   0   0
  9207  9228      0   0   0
  9207   387      1   0   0
  9208  8767      0   0   0
  9208  9187      0   0   0
  9208  9207      0   0   0
  9208  9209      0   0   0
  9208  9229      0   0   0
  9208   388      1   0   0
  9209  8768      0   0   0
  9209  9188      0   0   0
  9209  9208      0   0   0
  9209  9210      0   0   0
  9209  9230      0   0   0
  9209   389      1   0   0
  9210  8769      0   0   0
  9210  9189      0   0   0
  9210  9209      0   0   0
  9210  9211      0   0   0
  9210  9231      0   0   0
  9210   390      1   0   0
  9211  8770      0   0   0
  9211  9190      0   0   0
  9211  9210      0   0   0
  9211  9212      0   0   0
  9211  9232      0   0   0
  9211   391      1   0   0
  9212  8771      0   0   0
  9212  9191      0   0   0
  9212  9211      0   0   0
  9212  9213      0   0   0
  9212  9233      0   0   0
  9212   392      1   0   0
  9213  8772      0   0   0
  9213  9192      0   0   0
  9213  9212      0   0   0
  9213  9214      0   0   0
  9213  9234      0   0   0
  9213   393      1   0   0
  9214  8773      0   0   0
  9214  9193      0   0   0
  9214  9213      0   0   0
  9214  9215      0   0   0
  9214  9235      0   0   0
  9214   394      1   0   0
  9215  8774      0   0   0
  9215  9194      0   0   0
  9215  9214      0   0   0
  9215  9216      0   0   0
  9215  9236      0   0   0
  9215   395      1   0   0
  9216  8775      0   0   0
  9216  9195      0   0   0
  9216  9215      0   0   0
  9216  9217      0   0   0
  9216  9237      0   0   0
  9216   396      1   0   0
  9217  8776      0   0   0
  9217  9196      0   0   0
  9217  9216      0   0   0
  9217  9218      0   0   0
  9217  9238      0   0   0
  9217   397      1   0   0
  9218  8777      0   0   0
  9218  9197      0   0   0
  9218  9217      0   0   0
  9218  9219      0   0   0
  9218  9239      0   0   0
  9218   398      1   0   0
  9219  8778      0   0   0
  9219  9198      0   0   0
  9219  9218      0   0   0
  9219  9240      0   0   0
  9219   399      1   0   0
  9219  9199      0   0   1
  9220  8779      0   0   0
  9220  9199      0   0   0
  9220  9221      0   0   0
  9220  9241      0   0   0
  9220   400      1   0   0
  9220  9240      0   0  -1
  9221  8780      0   0   0
  9221  9200      0   0   0
  9221  9220      0   0   0
  9221  9222      0   0   0
  9221  9242      0   0   0
  9221   401      1   0   0
  9222  8781      0   0   0
  9222  9201      0   0   0
  9222  9221      0   0   0
  9222  9223      0   0   0
  9222  9243      0   0   0
  9222   402      1   0   0
  9223  8782      0   0   0
  9223  9202      0   0   0
  9223  9222      0   0   0
  9223  9224      0   0   0
  9223  9244      0   0   0
  9223   403      1   0   0
  9224  8783      0   0   0
  9224  9203      0   0   0
  9224  9223      0   0   0
  9224  9225      0   0   0
  9224  9245      0   0   0
  9224   404      1   0   0
  9225  8784      0   0   0
  9225  9204      0   0   0
  9225  9224      0   0   0
  9225  9226      0   0   0
  9225  9246      0   0   0
  9225   405      1   0   0
  9226  8785      0   0   0
  9226  9205      0   0   0
  9226  9225      0   0   0
  9226  9227      0   0   0
  9226  9247      0   0   0
  9226   406      1   0   0
  9227  8786      0   0   0
  9227  9206      0   0   0
  9227  9226      0   0   0
  9227  9228      0   0   0
  9227  9248      0   0   0
  9227   407      1   0   0
  9228  8787      0   0   0
  9228  9207      0   0   0
  9228  9227      0   0   0
  9228  9229      0   0   0
  9228  9249      0   0   0
  9228   408      1   0   0
  9229  8788      0   0   0
  9229  9208      0   0   0
  9229  9228      0   0   0
  9229  9230      0   0   0
  9229  9250      0   0   0
  9229   409      1   0   0
  9230  8789      0   0   0
  9230  9209      0   0   0
  9230  9229      0   0   0
  9230  9231      0   0   0
  9230  9251      0   0   0
  9230   410      1   0   0
  9231  8790      0   0   0
  9231  9210      0   0   0
  9231  9230      0   0   0
  9231  9232      0   0   0
  9231  9252      0   0   0
  9231   411      1   0   0
  9232  8791      0   0   0
  9232  9211      0   0   0
  9232  9231      0   0   0
  9232  9233      0   0   0
  9232  9253      0   0   0
  9232   412      1   0   0
  9233  8792      0   0   0
  9233  9212      0   0   0
  9233  9232      0   0   0
  9233  9234      0   0   0
  9233  9254      0   0   0
  9233   413      1   0   0
  9234  8793      0   0   0
  9234  9213      0   0   0
  9234  9233      0   0   0
  9234  9235      0   0   0
  9234  9255      0   0   0
  9234   414      1   0   0
  9235  8794      0   0   0
  9235  9214      0   0   0
  9235  9234      0   0   0
  9235  9236      0   0   0
  9235  9256      0   0   0
  9235   415      1   0   0
  9236  8795      0   0   0
  9236  9215      0   0   0
  9236  9235      0   0   0
  9236  9237      0   0   0
  9236  9257      0   0   0
  9236   416      1   0   0
  9237  8796      0   0   0
  9237  9216      0   0   0
  9237  9236      0   0   0
  9237  9238      0   0   0
  9237  9258      0   0   0
  9237   417      1   0   0
  9238  8797      0   0   0
  9238  9217      0   0   0
  9238  9237      0   0   0
  9238  9239      0   0   0
  9238  9259      0   0   0
  9238   418      1   0   0
  9239  8798      0   0   0
  9239  9218      0   0   0
  9239  9238      0   0   0
  9239  9240      0   0   0
  9239  9260      0   0   0
  9239   419      1   0   0
  9240  8799      0   0   0
  9240  9219      0   0   0
  9240  9239      0   0   0
  9240  9261      0   0   0
  9240   420      1   0   0
  9240  9220      0   0   1
  9241  8800      0   0   0
  9241  9220      0   0   0
  9241  9242      0   0   0
  9241   421      1   0   0
  9241  8821      0   1   0
  9241  9261      0   0  -1
  9242  8801      0   0   0
  9242  9221      0   0   0
  9242  9241      0   0   0
  9242  9243      0   0   0
  9242   422      1   0   0
  9242  8822      0   1   0
  9243  8802      0   0   0
  9243  9222      0   0   0
  9243  9242      0   0   0
  9243  9244      0   0   0
  9243   423      1   0   0
  9243  8823      0   1   0
  9244  8803      0   0   0
  9244  9223      0   0   0
  9244  9243      0   0   0
  9244  9245      0   0   0
  9244   424      1   0   0
  9244  8824      0   1   0
  9245  8804      0   0   0
  9245  9224      0   0   0
  9245  9244      0   0   0
  9245  9246      0   0   0
  9245   425      1   0   0
  9245  8825      0   1   0
  9246  8805      0   0   0
  9246  9225      0   0   0
  9246  9245      0   0   0
  9246  9247      0   0   0
  9246   426      1   0   0
  9246  8826      0   1   0
  9247  8806      0   0   0
  9247  9226      0   0   0
  9247  9246      0   0   0
  9247  9248      0   0   0
  9247   427      1   0   0
  9247  8827      0   1   0
  9248  8807      0   0   0
  9248  9227      0   0   0
  9248  9247      0   0   0
  9248  9249      0   0   0
  9248   428      1   0   0
  9248  8828      0   1   0
  9249  8808      0   0   0
  9249  9228      0   0   0
  9249  9248      0   0   0
  9249  9250      0   0   0
  9249   429      1   0   0
  9249  8829      0   1   0
  9250  8809      0   0   0
  9250  9229      0   0   0
  9250  9249      0   0   0
  9250  9251      0   0   0
  9250   430      1   0   0
  9250  8830      0   1   0
  9251  8810      0   0   0
  9251  9230      0   0   0
  9251  9250      0   0   0
  9251  9252      0   0   0
  9251   431      1   0   0
  9251  8831      0   1   0
  9252  8811      0   0   0
  9252  9231      0   0   0
  9252  9251      0   0   0
  9252  9253      0   0   0
  9252   432      1   0   0
  9252  8832      0   1   0
  9253  8812      0   0   0
  9253  9232      0   0   0
  9253  9252      0   0   0
  9253  9254      0   0   0
  9253   433      1   0   0
  9253  8833      0   1   0
  9254  8813      0   0   0
  9254  9233      0   0   0
  9254  9253      0   0   0
  9254  9255      0   0   0
  9254   434      1   0   0
  9254  8834      0   1   0
  9255  8814      0   0   0
  9255  9234      0   0   0
  9255  9254      0   0   0
  9255  9256      0   0   0
  9255   435      1   0   0
  9255  8835      0   1   0
  9256  8815      0   0   0
  9256  9235      0   0   0
  9256  9255      0   0   0
  9256  9257      0   0   0
  9256   436      1   0   0
  9256  8836      0   1   0
  9257  8816      0   0   0
  9257  9236      0   0   0
  9257  9256      0   0   0
  9257  9258      0   0   0
  9257   437      1   0   0
  9257  8837      0   1   0
  9258  8817      0   0   0
  9258  9237      0   0   0
  9258  9257      0   0   0
  9258  9259      0   0   0
  9258   438      1   0   0
  9258  8838      0   1   0
  9259  8818      0   0   0
  9259  9238      0   0   0
  9259  9258      0   0   0
  9259  9260      0   0   0
  9259   439      1   0   0
  9259  8839      0   1   0
  9260  8819      0   0   0
  9260  9239      0   0   0
  9260  9259      0   0   0
  9260  9261      0   0   0
  9260   440      1   0   0
  9260  8840      0   1   0
  9261  8820      0   0   0
  9261  9240      0   0   0
  9261  9260      0   0   0
  9261   441      1   0   0
  9261  8841      0   1   0
  9261  9241      0   0   1
end nnkpts

begin exclude_bands
   0
end exclude_bands
