# created by umat.py
# written on 25Jul2025 at 15:22:23
1 16 16

    0.000000000000     0.000000000000     0.000000000000 
    1.000000000000      0.000000000000 
    0.000000000000      0.000000000000 
    0.000000000000      0.000000000000 
    0.000000000000      0.000000000000 
    0.000000000000      0.000000000000 
    0.000000000000      0.000000000000 
    0.000000000000      0.000000000000 
    0.000000000000      0.000000000000 
    0.000000000000      0.000000000000 
    0.000000000000      0.000000000000 
    0.000000000000      0.000000000000 
    0.000000000000      0.000000000000 
    0.000000000000      0.000000000000 
    0.000000000000      0.000000000000 
    0.000000000000      0.000000000000 
    0.000000000000      0.000000000000 
    0.000000000000      0.000000000000 
    1.000000000000      0.000000000000 
    0.000000000000      0.000000000000 
    0.000000000000      0.000000000000 
    0.000000000000      0.000000000000 
    0.000000000000      0.000000000000 
    0.000000000000      0.000000000000 
    0.000000000000      0.000000000000 
    0.000000000000      0.000000000000 
    0.000000000000      0.000000000000 
    0.000000000000      0.000000000000 
    0.000000000000      0.000000000000 
    0.000000000000      0.000000000000 
    0.000000000000      0.000000000000 
    0.000000000000      0.000000000000 
    0.000000000000      0.000000000000 
    0.000000000000      0.000000000000 
    0.000000000000      0.000000000000 
    1.000000000000      0.000000000000 
    0.000000000000      0.000000000000 
    0.000000000000      0.000000000000 
    0.000000000000      0.000000000000 
    0.000000000000      0.000000000000 
    0.000000000000      0.000000000000 
    0.000000000000      0.000000000000 
    0.000000000000      0.000000000000 
    0.000000000000      0.000000000000 
    0.000000000000      0.000000000000 
    0.000000000000      0.000000000000 
    0.000000000000      0.000000000000 
    0.000000000000      0.000000000000 
    0.000000000000      0.000000000000 
    0.000000000000      0.000000000000 
    0.000000000000      0.000000000000 
    0.000000000000      0.000000000000 
    1.000000000000      0.000000000000 
    0.000000000000      0.000000000000 
    0.000000000000      0.000000000000 
    0.000000000000      0.000000000000 
    0.000000000000      0.000000000000 
    0.000000000000      0.000000000000 
    0.000000000000      0.000000000000 
    0.000000000000      0.000000000000 
    0.000000000000      0.000000000000 
    0.000000000000      0.000000000000 
    0.000000000000      0.000000000000 
    0.000000000000      0.000000000000 
    0.000000000000      0.000000000000 
    0.000000000000      0.000000000000 
    0.000000000000      0.000000000000 
    0.000000000000      0.000000000000 
    0.000000000000      0.000000000000 
    1.000000000000      0.000000000000 
    0.000000000000      0.000000000000 
    0.000000000000      0.000000000000 
    0.000000000000      0.000000000000 
    0.000000000000      0.000000000000 
    0.000000000000      0.000000000000 
    0.000000000000      0.000000000000 
    0.000000000000      0.000000000000 
    0.000000000000      0.000000000000 
    0.000000000000      0.000000000000 
    0.000000000000      0.000000000000 
    0.000000000000      0.000000000000 
    0.000000000000      0.000000000000 
    0.000000000000      0.000000000000 
    0.000000000000      0.000000000000 
    0.000000000000      0.000000000000 
    0.000000000000      0.000000000000 
    1.000000000000      0.000000000000 
    0.000000000000      0.000000000000 
    0.000000000000      0.000000000000 
    0.000000000000      0.000000000000 
    0.000000000000      0.000000000000 
    0.000000000000      0.000000000000 
    0.000000000000      0.000000000000 
    0.000000000000      0.000000000000 
    0.000000000000      0.000000000000 
    0.000000000000      0.000000000000 
    0.000000000000      0.000000000000 
    0.000000000000      0.000000000000 
    0.000000000000      0.000000000000 
    0.000000000000      0.000000000000 
    0.000000000000      0.000000000000 
    0.000000000000      0.000000000000 
    0.000000000000      0.000000000000 
    1.000000000000      0.000000000000 
    0.000000000000      0.000000000000 
    0.000000000000      0.000000000000 
    0.000000000000      0.000000000000 
    0.000000000000      0.000000000000 
    0.000000000000      0.000000000000 
    0.000000000000      0.000000000000 
    0.000000000000      0.000000000000 
    0.000000000000      0.000000000000 
    0.000000000000      0.000000000000 
    0.000000000000      0.000000000000 
    0.000000000000      0.000000000000 
    0.000000000000      0.000000000000 
    0.000000000000      0.000000000000 
    0.000000000000      0.000000000000 
    0.000000000000      0.000000000000 
    0.000000000000      0.000000000000 
    1.000000000000      0.000000000000 
    0.000000000000      0.000000000000 
    0.000000000000      0.000000000000 
    0.000000000000      0.000000000000 
    0.000000000000      0.000000000000 
    0.000000000000      0.000000000000 
    0.000000000000      0.000000000000 
    0.000000000000      0.000000000000 
    0.000000000000      0.000000000000 
    0.000000000000      0.000000000000 
    0.000000000000      0.000000000000 
    0.000000000000      0.000000000000 
    0.000000000000      0.000000000000 
    0.000000000000      0.000000000000 
    0.000000000000      0.000000000000 
    0.000000000000      0.000000000000 
    0.000000000000      0.000000000000 
    1.000000000000      0.000000000000 
    0.000000000000      0.000000000000 
    0.000000000000      0.000000000000 
    0.000000000000      0.000000000000 
    0.000000000000      0.000000000000 
    0.000000000000      0.000000000000 
    0.000000000000      0.000000000000 
    0.000000000000      0.000000000000 
    0.000000000000      0.000000000000 
    0.000000000000      0.000000000000 
    0.000000000000      0.000000000000 
    0.000000000000      0.000000000000 
    0.000000000000      0.000000000000 
    0.000000000000      0.000000000000 
    0.000000000000      0.000000000000 
    0.000000000000      0.000000000000 
    0.000000000000      0.000000000000 
    1.000000000000      0.000000000000 
    0.000000000000      0.000000000000 
    0.000000000000      0.000000000000 
    0.000000000000      0.000000000000 
    0.000000000000      0.000000000000 
    0.000000000000      0.000000000000 
    0.000000000000      0.000000000000 
    0.000000000000      0.000000000000 
    0.000000000000      0.000000000000 
    0.000000000000      0.000000000000 
    0.000000000000      0.000000000000 
    0.000000000000      0.000000000000 
    0.000000000000      0.000000000000 
    0.000000000000      0.000000000000 
    0.000000000000      0.000000000000 
    0.000000000000      0.000000000000 
    0.000000000000      0.000000000000 
    1.000000000000      0.000000000000 
    0.000000000000      0.000000000000 
    0.000000000000      0.000000000000 
    0.000000000000      0.000000000000 
    0.000000000000      0.000000000000 
    0.000000000000      0.000000000000 
    0.000000000000      0.000000000000 
    0.000000000000      0.000000000000 
    0.000000000000      0.000000000000 
    0.000000000000      0.000000000000 
    0.000000000000      0.000000000000 
    0.000000000000      0.000000000000 
    0.000000000000      0.000000000000 
    0.000000000000      0.000000000000 
    0.000000000000      0.000000000000 
    0.000000000000      0.000000000000 
    0.000000000000      0.000000000000 
    1.000000000000      0.000000000000 
    0.000000000000      0.000000000000 
    0.000000000000      0.000000000000 
    0.000000000000      0.000000000000 
    0.000000000000      0.000000000000 
    0.000000000000      0.000000000000 
    0.000000000000      0.000000000000 
    0.000000000000      0.000000000000 
    0.000000000000      0.000000000000 
    0.000000000000      0.000000000000 
    0.000000000000      0.000000000000 
    0.000000000000      0.000000000000 
    0.000000000000      0.000000000000 
    0.000000000000      0.000000000000 
    0.000000000000      0.000000000000 
    0.000000000000      0.000000000000 
    0.000000000000      0.000000000000 
    1.000000000000      0.000000000000 
    0.000000000000      0.000000000000 
    0.000000000000      0.000000000000 
    0.000000000000      0.000000000000 
    0.000000000000      0.000000000000 
    0.000000000000      0.000000000000 
    0.000000000000      0.000000000000 
    0.000000000000      0.000000000000 
    0.000000000000      0.000000000000 
    0.000000000000      0.000000000000 
    0.000000000000      0.000000000000 
    0.000000000000      0.000000000000 
    0.000000000000      0.000000000000 
    0.000000000000      0.000000000000 
    0.000000000000      0.000000000000 
    0.000000000000      0.000000000000 
    0.000000000000      0.000000000000 
    1.000000000000      0.000000000000 
    0.000000000000      0.000000000000 
    0.000000000000      0.000000000000 
    0.000000000000      0.000000000000 
    0.000000000000      0.000000000000 
    0.000000000000      0.000000000000 
    0.000000000000      0.000000000000 
    0.000000000000      0.000000000000 
    0.000000000000      0.000000000000 
    0.000000000000      0.000000000000 
    0.000000000000      0.000000000000 
    0.000000000000      0.000000000000 
    0.000000000000      0.000000000000 
    0.000000000000      0.000000000000 
    0.000000000000      0.000000000000 
    0.000000000000      0.000000000000 
    0.000000000000      0.000000000000 
    1.000000000000      0.000000000000 
    0.000000000000      0.000000000000 
    0.000000000000      0.000000000000 
    0.000000000000      0.000000000000 
    0.000000000000      0.000000000000 
    0.000000000000      0.000000000000 
    0.000000000000      0.000000000000 
    0.000000000000      0.000000000000 
    0.000000000000      0.000000000000 
    0.000000000000      0.000000000000 
    0.000000000000      0.000000000000 
    0.000000000000      0.000000000000 
    0.000000000000      0.000000000000 
    0.000000000000      0.000000000000 
    0.000000000000      0.000000000000 
    0.000000000000      0.000000000000 
    0.000000000000      0.000000000000 
    1.000000000000      0.000000000000 

