# created by umat.py
# written on 25Jul2025 at 15:22:23
1 16 46

    0.000000000000     0.000000000000     0.000000000000 
   -0.063276027028      0.106425983447 
    0.016491891232      0.034933494200 
   -0.000000000002     -0.000000000004 
    0.000000000002     -0.000000000004 
    0.000000000006      0.000000000006 
   -0.000000000002     -0.000000000004 
    0.000000000001     -0.000000000004 
   -0.000000000010     -0.000000000005 
    0.023305449003     -0.744102250208 
    0.644379621022      0.117136348972 
   -0.000000000004     -0.000000000004 
    0.000000000000     -0.000000000002 
   -0.000000000004      0.000000000016 
   -0.000000000001      0.000000000005 
    0.000000000011      0.000000000006 
    0.000000000004     -0.000000000011 
    0.000000000000      0.000000000000 
    0.000000000000      0.000000000000 
    0.000000000000      0.000000000000 
    0.000000000000      0.000000000000 
    0.000000000000      0.000000000000 
    0.000000000000      0.000000000000 
    0.000000000000      0.000000000000 
    0.000000000000      0.000000000000 
    0.000000000000      0.000000000000 
    0.000000000000      0.000000000000 
    0.000000000000      0.000000000000 
    0.000000000000      0.000000000000 
    0.000000000000      0.000000000000 
    0.000000000000      0.000000000000 
    0.000000000000      0.000000000000 
    0.000000000000      0.000000000000 
    0.000000000000      0.000000000000 
    0.000000000000      0.000000000000 
    0.000000000000      0.000000000000 
    0.000000000000      0.000000000000 
    0.000000000000      0.000000000000 
    0.000000000000      0.000000000000 
    0.000000000000      0.000000000000 
    0.000000000000      0.000000000000 
    0.000000000000      0.000000000000 
    0.000000000000      0.000000000000 
    0.000000000000      0.000000000000 
    0.000000000000      0.000000000000 
    0.000000000000      0.000000000000 
    0.000000000000      0.000000000000 
   -0.038240999022      0.005473343379 
    0.053984208337     -0.111427334172 
    0.000000000003     -0.000000000003 
   -0.000000000000     -0.000000000000 
   -0.000000000001      0.000000000003 
   -0.000000000001      0.000000000003 
    0.000000000001     -0.000000000001 
    0.000000000003     -0.000000000001 
   -0.450661241999     -0.475237272528 
   -0.610050244021      0.426696616446 
    0.000000000008      0.000000000003 
    0.000000000003      0.000000000005 
   -0.000000000002     -0.000000000014 
    0.000000000004      0.000000000007 
   -0.000000000009     -0.000000000004 
    0.000000000001      0.000000000008 
    0.000000000000      0.000000000000 
    0.000000000000      0.000000000000 
    0.000000000000      0.000000000000 
    0.000000000000      0.000000000000 
    0.000000000000      0.000000000000 
    0.000000000000      0.000000000000 
    0.000000000000      0.000000000000 
    0.000000000000      0.000000000000 
    0.000000000000      0.000000000000 
    0.000000000000      0.000000000000 
    0.000000000000      0.000000000000 
    0.000000000000      0.000000000000 
    0.000000000000      0.000000000000 
    0.000000000000      0.000000000000 
    0.000000000000      0.000000000000 
    0.000000000000      0.000000000000 
    0.000000000000      0.000000000000 
    0.000000000000      0.000000000000 
    0.000000000000      0.000000000000 
    0.000000000000      0.000000000000 
    0.000000000000      0.000000000000 
    0.000000000000      0.000000000000 
    0.000000000000      0.000000000000 
    0.000000000000      0.000000000000 
    0.000000000000      0.000000000000 
    0.000000000000      0.000000000000 
    0.000000000000      0.000000000000 
    0.000000000000      0.000000000000 
    0.000000000000      0.000000000000 
    0.000000000000      0.000000000000 
   -0.000000000014      0.000000000008 
   -0.000000000020     -0.000000000003 
   -0.003082054334      0.001842507272 
   -0.000062283941      0.000035336896 
    0.003431330386      0.003357627551 
   -0.000803944127     -0.001179915445 
   -0.000158593628      0.001660397644 
   -0.000244252025      0.000689298093 
    0.000000000007      0.000000000002 
    0.000000000003      0.000000000011 
    0.374841672149     -0.386555730646 
    0.077791217015      0.193228747361 
    0.291507226196     -0.074300951447 
    0.092338359773      0.025804613012 
    0.237460385842     -0.229536737009 
   -0.669979403511     -0.094878706329 
    0.000000000000      0.000000000000 
    0.000000000000      0.000000000000 
    0.000000000000      0.000000000000 
    0.000000000000      0.000000000000 
    0.000000000000      0.000000000000 
    0.000000000000      0.000000000000 
    0.000000000000      0.000000000000 
    0.000000000000      0.000000000000 
    0.000000000000      0.000000000000 
    0.000000000000      0.000000000000 
    0.000000000000      0.000000000000 
    0.000000000000      0.000000000000 
    0.000000000000      0.000000000000 
    0.000000000000      0.000000000000 
    0.000000000000      0.000000000000 
    0.000000000000      0.000000000000 
    0.000000000000      0.000000000000 
    0.000000000000      0.000000000000 
    0.000000000000      0.000000000000 
    0.000000000000      0.000000000000 
    0.000000000000      0.000000000000 
    0.000000000000      0.000000000000 
    0.000000000000      0.000000000000 
    0.000000000000      0.000000000000 
    0.000000000000      0.000000000000 
    0.000000000000      0.000000000000 
    0.000000000000      0.000000000000 
    0.000000000000      0.000000000000 
    0.000000000000      0.000000000000 
    0.000000000000      0.000000000000 
    0.000000000001      0.000000000004 
    0.000000000025      0.000000000010 
    0.000050129311      0.000051137396 
   -0.002454710894     -0.002620741541 
   -0.001750109780     -0.000808421333 
   -0.000694122737     -0.002673783399 
    0.002003894345      0.003476998417 
    0.000919152167     -0.000325232284 
    0.000000000001     -0.000000000005 
   -0.000000000004     -0.000000000006 
    0.201586358002      0.052457244693 
    0.335478168501     -0.421172186270 
   -0.373789487299     -0.142965209667 
    0.270748922362     -0.621612838881 
    0.107385408168     -0.005261261546 
   -0.068821044025     -0.174578029389 
    0.000000000000      0.000000000000 
    0.000000000000      0.000000000000 
    0.000000000000      0.000000000000 
    0.000000000000      0.000000000000 
    0.000000000000      0.000000000000 
    0.000000000000      0.000000000000 
    0.000000000000      0.000000000000 
    0.000000000000      0.000000000000 
    0.000000000000      0.000000000000 
    0.000000000000      0.000000000000 
    0.000000000000      0.000000000000 
    0.000000000000      0.000000000000 
    0.000000000000      0.000000000000 
    0.000000000000      0.000000000000 
    0.000000000000      0.000000000000 
    0.000000000000      0.000000000000 
    0.000000000000      0.000000000000 
    0.000000000000      0.000000000000 
    0.000000000000      0.000000000000 
    0.000000000000      0.000000000000 
    0.000000000000      0.000000000000 
    0.000000000000      0.000000000000 
    0.000000000000      0.000000000000 
    0.000000000000      0.000000000000 
    0.000000000000      0.000000000000 
    0.000000000000      0.000000000000 
    0.000000000000      0.000000000000 
    0.000000000000      0.000000000000 
    0.000000000000      0.000000000000 
    0.000000000000      0.000000000000 
    0.000000000003     -0.000000000006 
    0.000000000005      0.000000000001 
   -0.000050129335     -0.000051137414 
    0.002454710900      0.002620741556 
   -0.000971035480     -0.000717351450 
   -0.002975249215     -0.000660966471 
   -0.001229992970      0.002696488693 
    0.000231719221     -0.002969674284 
   -0.000000000005      0.000000000000 
   -0.000000000002     -0.000000000006 
   -0.201586358008     -0.052457244671 
   -0.335478168537      0.421172186290 
   -0.546292251027     -0.312160317258 
   -0.039338548609     -0.061904869128 
    0.480778036721      0.158509540066 
   -0.095344977029      0.003972734003 
    0.000000000000      0.000000000000 
    0.000000000000      0.000000000000 
    0.000000000000      0.000000000000 
    0.000000000000      0.000000000000 
    0.000000000000      0.000000000000 
    0.000000000000      0.000000000000 
    0.000000000000      0.000000000000 
    0.000000000000      0.000000000000 
    0.000000000000      0.000000000000 
    0.000000000000      0.000000000000 
    0.000000000000      0.000000000000 
    0.000000000000      0.000000000000 
    0.000000000000      0.000000000000 
    0.000000000000      0.000000000000 
    0.000000000000      0.000000000000 
    0.000000000000      0.000000000000 
    0.000000000000      0.000000000000 
    0.000000000000      0.000000000000 
    0.000000000000      0.000000000000 
    0.000000000000      0.000000000000 
    0.000000000000      0.000000000000 
    0.000000000000      0.000000000000 
    0.000000000000      0.000000000000 
    0.000000000000      0.000000000000 
    0.000000000000      0.000000000000 
    0.000000000000      0.000000000000 
    0.000000000000      0.000000000000 
    0.000000000000      0.000000000000 
    0.000000000000      0.000000000000 
    0.000000000000      0.000000000000 
    0.000000000007      0.000000000005 
    0.000000000008      0.000000000009 
   -0.003082054325      0.001842507248 
   -0.000062283934      0.000035336886 
   -0.001216652217     -0.002613124736 
    0.000509391495     -0.001993535504 
    0.000103192846     -0.001942427075 
   -0.003296103741     -0.001101263868 
   -0.000000000002     -0.000000000000 
    0.000000000000     -0.000000000006 
    0.374841672142     -0.386555730637 
    0.077791217003      0.193228747371 
    0.169802759540     -0.121970544477 
   -0.182670208686     -0.205761674824 
    0.251571639224     -0.138237211184 
    0.677354755521      0.077555913403 
    0.000000000000      0.000000000000 
    0.000000000000      0.000000000000 
    0.000000000000      0.000000000000 
    0.000000000000      0.000000000000 
    0.000000000000      0.000000000000 
    0.000000000000      0.000000000000 
    0.000000000000      0.000000000000 
    0.000000000000      0.000000000000 
    0.000000000000      0.000000000000 
    0.000000000000      0.000000000000 
    0.000000000000      0.000000000000 
    0.000000000000      0.000000000000 
    0.000000000000      0.000000000000 
    0.000000000000      0.000000000000 
    0.000000000000      0.000000000000 
    0.000000000000      0.000000000000 
    0.000000000000      0.000000000000 
    0.000000000000      0.000000000000 
    0.000000000000      0.000000000000 
    0.000000000000      0.000000000000 
    0.000000000000      0.000000000000 
    0.000000000000      0.000000000000 
    0.000000000000      0.000000000000 
    0.000000000000      0.000000000000 
    0.000000000000      0.000000000000 
    0.000000000000      0.000000000000 
    0.000000000000      0.000000000000 
    0.000000000000      0.000000000000 
    0.000000000000      0.000000000000 
    0.000000000000      0.000000000000 
    0.000000000006     -0.000000000016 
    0.000000000007      0.000000000004 
    0.000051137418     -0.000050129336 
   -0.002620741558      0.002454710883 
    0.000091069885     -0.000779074292 
    0.002012816930      0.002281126459 
   -0.000780509705      0.003233887290 
   -0.002644441997      0.000687432924 
    0.000000000003      0.000000000002 
   -0.000000000004      0.000000000001 
    0.052457244651     -0.201586358008 
   -0.421172186306     -0.335478168540 
   -0.169195107586      0.172502763768 
    0.559707969709      0.310087470942 
    0.163770801608     -0.373392628542 
    0.178550763383      0.026523932988 
    0.000000000000      0.000000000000 
    0.000000000000      0.000000000000 
    0.000000000000      0.000000000000 
    0.000000000000      0.000000000000 
    0.000000000000      0.000000000000 
    0.000000000000      0.000000000000 
    0.000000000000      0.000000000000 
    0.000000000000      0.000000000000 
    0.000000000000      0.000000000000 
    0.000000000000      0.000000000000 
    0.000000000000      0.000000000000 
    0.000000000000      0.000000000000 
    0.000000000000      0.000000000000 
    0.000000000000      0.000000000000 
    0.000000000000      0.000000000000 
    0.000000000000      0.000000000000 
    0.000000000000      0.000000000000 
    0.000000000000      0.000000000000 
    0.000000000000      0.000000000000 
    0.000000000000      0.000000000000 
    0.000000000000      0.000000000000 
    0.000000000000      0.000000000000 
    0.000000000000      0.000000000000 
    0.000000000000      0.000000000000 
    0.000000000000      0.000000000000 
    0.000000000000      0.000000000000 
    0.000000000000      0.000000000000 
    0.000000000000      0.000000000000 
    0.000000000000      0.000000000000 
    0.000000000000      0.000000000000 
    0.000000000005     -0.000000000020 
    0.000000000023     -0.000000000029 
    0.001842507236      0.003082054330 
    0.000035336868      0.000062283931 
   -0.000744502808      0.002214678177 
    0.003173450952     -0.000294552655 
    0.000282029448     -0.000055400806 
    0.000411965779     -0.003540355784 
   -0.000000000001      0.000000000002 
   -0.000000000018      0.000000000003 
   -0.386555730618     -0.374841672139 
    0.193228747374     -0.077791216994 
    0.196271495902      0.461309985764 
    0.179957061811     -0.090331848966 
    0.367773948182      0.489032025091 
    0.017322792926      0.007375351990 
    0.000000000000      0.000000000000 
    0.000000000000      0.000000000000 
    0.000000000000      0.000000000000 
    0.000000000000      0.000000000000 
    0.000000000000      0.000000000000 
    0.000000000000      0.000000000000 
    0.000000000000      0.000000000000 
    0.000000000000      0.000000000000 
    0.000000000000      0.000000000000 
    0.000000000000      0.000000000000 
    0.000000000000      0.000000000000 
    0.000000000000      0.000000000000 
    0.000000000000      0.000000000000 
    0.000000000000      0.000000000000 
    0.000000000000      0.000000000000 
    0.000000000000      0.000000000000 
    0.000000000000      0.000000000000 
    0.000000000000      0.000000000000 
    0.000000000000      0.000000000000 
    0.000000000000      0.000000000000 
    0.000000000000      0.000000000000 
    0.000000000000      0.000000000000 
    0.000000000000      0.000000000000 
    0.000000000000      0.000000000000 
    0.000000000000      0.000000000000 
    0.000000000000      0.000000000000 
    0.000000000000      0.000000000000 
    0.000000000000      0.000000000000 
    0.000000000000      0.000000000000 
    0.000000000000      0.000000000000 
   -0.241867535793      0.406804781687 
    0.063038930896      0.133530478388 
    0.247640022246     -0.139952732655 
    0.018350854824     -0.410781236023 
   -0.195436176629     -0.142569249344 
    0.135305562232     -0.033723014693 
    0.166154165487     -0.581458121774 
    0.203525970047      0.122020474643 
   -0.001524260186      0.048666963448 
   -0.042144744829     -0.007661138522 
    0.000702058196     -0.001992525424 
   -0.002111529043      0.000867563666 
   -0.001383735591     -0.000698292142 
    0.001999682293      0.000894206657 
    0.002878596136     -0.001450444227 
   -0.001915041512     -0.000210122405 
    0.000000000000      0.000000000000 
    0.000000000000      0.000000000000 
    0.000000000000      0.000000000000 
    0.000000000000      0.000000000000 
    0.000000000000      0.000000000000 
    0.000000000000      0.000000000000 
    0.000000000000      0.000000000000 
    0.000000000000      0.000000000000 
    0.000000000000      0.000000000000 
    0.000000000000      0.000000000000 
    0.000000000000      0.000000000000 
    0.000000000000      0.000000000000 
    0.000000000000      0.000000000000 
    0.000000000000      0.000000000000 
    0.000000000000      0.000000000000 
    0.000000000000      0.000000000000 
    0.000000000000      0.000000000000 
    0.000000000000      0.000000000000 
    0.000000000000      0.000000000000 
    0.000000000000      0.000000000000 
    0.000000000000      0.000000000000 
    0.000000000000      0.000000000000 
    0.000000000000      0.000000000000 
    0.000000000000      0.000000000000 
    0.000000000000      0.000000000000 
    0.000000000000      0.000000000000 
    0.000000000000      0.000000000000 
    0.000000000000      0.000000000000 
    0.000000000000      0.000000000000 
    0.000000000000      0.000000000000 
   -0.146173150159      0.020921415860 
    0.206350304464     -0.425922043474 
    0.095599810331     -0.399923310156 
    0.199464008427      0.202796591038 
    0.284285259023      0.092446853699 
   -0.228937842992      0.380082537000 
   -0.183007863858     -0.113305411567 
    0.150519169769      0.380464035821 
    0.029474866104      0.031082226894 
    0.039899480109     -0.027907493401 
    0.000590580359     -0.002205093299 
    0.001886456776     -0.000950959591 
   -0.000025180056      0.000640902709 
    0.000874783073     -0.002995100154 
    0.002371817631      0.001127711061 
    0.002042595547     -0.000292578367 
    0.000000000000      0.000000000000 
    0.000000000000      0.000000000000 
    0.000000000000      0.000000000000 
    0.000000000000      0.000000000000 
    0.000000000000      0.000000000000 
    0.000000000000      0.000000000000 
    0.000000000000      0.000000000000 
    0.000000000000      0.000000000000 
    0.000000000000      0.000000000000 
    0.000000000000      0.000000000000 
    0.000000000000      0.000000000000 
    0.000000000000      0.000000000000 
    0.000000000000      0.000000000000 
    0.000000000000      0.000000000000 
    0.000000000000      0.000000000000 
    0.000000000000      0.000000000000 
    0.000000000000      0.000000000000 
    0.000000000000      0.000000000000 
    0.000000000000      0.000000000000 
    0.000000000000      0.000000000000 
    0.000000000000      0.000000000000 
    0.000000000000      0.000000000000 
    0.000000000000      0.000000000000 
    0.000000000000      0.000000000000 
    0.000000000000      0.000000000000 
    0.000000000000      0.000000000000 
    0.000000000000      0.000000000000 
    0.000000000000      0.000000000000 
    0.000000000000      0.000000000000 
    0.000000000000      0.000000000000 
   -0.241867535794      0.406804781689 
    0.063038930900      0.133530478390 
    0.247802072914     -0.156231422335 
   -0.008338673346      0.405100811646 
   -0.330248031577     -0.371823589487 
   -0.012140292319      0.214487573998 
   -0.141857419157      0.327083078560 
   -0.166106249254     -0.227621821971 
   -0.001524260188      0.048666963444 
   -0.042144744827     -0.007661138521 
    0.001629763014     -0.000412166828 
    0.002595453911      0.000334476893 
    0.003286508373      0.000213303066 
   -0.001396956538     -0.000725770646 
   -0.001328606552     -0.000047824818 
   -0.002458155658     -0.000409185141 
    0.000000000000      0.000000000000 
    0.000000000000      0.000000000000 
    0.000000000000      0.000000000000 
    0.000000000000      0.000000000000 
    0.000000000000      0.000000000000 
    0.000000000000      0.000000000000 
    0.000000000000      0.000000000000 
    0.000000000000      0.000000000000 
    0.000000000000      0.000000000000 
    0.000000000000      0.000000000000 
    0.000000000000      0.000000000000 
    0.000000000000      0.000000000000 
    0.000000000000      0.000000000000 
    0.000000000000      0.000000000000 
    0.000000000000      0.000000000000 
    0.000000000000      0.000000000000 
    0.000000000000      0.000000000000 
    0.000000000000      0.000000000000 
    0.000000000000      0.000000000000 
    0.000000000000      0.000000000000 
    0.000000000000      0.000000000000 
    0.000000000000      0.000000000000 
    0.000000000000      0.000000000000 
    0.000000000000      0.000000000000 
    0.000000000000      0.000000000000 
    0.000000000000      0.000000000000 
    0.000000000000      0.000000000000 
    0.000000000000      0.000000000000 
    0.000000000000      0.000000000000 
    0.000000000000      0.000000000000 
   -0.146173150146      0.020921415865 
    0.206350304464     -0.425922043477 
   -0.103658129834      0.391702939980 
    0.195132251326      0.218489196894 
   -0.016166200392      0.031404330636 
    0.335278335964      0.029544503974 
   -0.123991317355     -0.419375198261 
   -0.291334457261     -0.330638034271 
    0.029474866099      0.031082226894 
    0.039899480103     -0.027907493405 
    0.000663451387      0.002531420191 
    0.000200491339     -0.001669075268 
   -0.002414678728     -0.001574088207 
    0.000892492775     -0.001062390955 
   -0.001670874367     -0.001162053206 
   -0.002491815303     -0.000846955354 
    0.000000000000      0.000000000000 
    0.000000000000      0.000000000000 
    0.000000000000      0.000000000000 
    0.000000000000      0.000000000000 
    0.000000000000      0.000000000000 
    0.000000000000      0.000000000000 
    0.000000000000      0.000000000000 
    0.000000000000      0.000000000000 
    0.000000000000      0.000000000000 
    0.000000000000      0.000000000000 
    0.000000000000      0.000000000000 
    0.000000000000      0.000000000000 
    0.000000000000      0.000000000000 
    0.000000000000      0.000000000000 
    0.000000000000      0.000000000000 
    0.000000000000      0.000000000000 
    0.000000000000      0.000000000000 
    0.000000000000      0.000000000000 
    0.000000000000      0.000000000000 
    0.000000000000      0.000000000000 
    0.000000000000      0.000000000000 
    0.000000000000      0.000000000000 
    0.000000000000      0.000000000000 
    0.000000000000      0.000000000000 
    0.000000000000      0.000000000000 
    0.000000000000      0.000000000000 
    0.000000000000      0.000000000000 
    0.000000000000      0.000000000000 
    0.000000000000      0.000000000000 
    0.000000000000      0.000000000000 
   -0.241867535788      0.406804781684 
    0.063038930897      0.133530478384 
   -0.239581702739      0.148173102829 
   -0.412947114574     -0.010504551903 
    0.344200055522      0.252468409738 
    0.320506426370      0.134983921616 
    0.022282331476      0.168352599626 
   -0.239025651687      0.332937427838 
   -0.001524260181      0.048666963448 
   -0.042144744834     -0.007661138517 
   -0.001956089935      0.001666198531 
    0.000024580931      0.001752471188 
   -0.002182110927     -0.001339290785 
   -0.002256459193     -0.001298282061 
    0.000259615491      0.002485093158 
    0.001292690472      0.000236053859 
    0.000000000000      0.000000000000 
    0.000000000000      0.000000000000 
    0.000000000000      0.000000000000 
    0.000000000000      0.000000000000 
    0.000000000000      0.000000000000 
    0.000000000000      0.000000000000 
    0.000000000000      0.000000000000 
    0.000000000000      0.000000000000 
    0.000000000000      0.000000000000 
    0.000000000000      0.000000000000 
    0.000000000000      0.000000000000 
    0.000000000000      0.000000000000 
    0.000000000000      0.000000000000 
    0.000000000000      0.000000000000 
    0.000000000000      0.000000000000 
    0.000000000000      0.000000000000 
    0.000000000000      0.000000000000 
    0.000000000000      0.000000000000 
    0.000000000000      0.000000000000 
    0.000000000000      0.000000000000 
    0.000000000000      0.000000000000 
    0.000000000000      0.000000000000 
    0.000000000000      0.000000000000 
    0.000000000000      0.000000000000 
    0.000000000000      0.000000000000 
    0.000000000000      0.000000000000 
    0.000000000000      0.000000000000 
    0.000000000000      0.000000000000 
    0.000000000000      0.000000000000 
    0.000000000000      0.000000000000 
   -0.146173150149      0.020921415863 
    0.206350304462     -0.425922043477 
    0.399842284821      0.103739155170 
   -0.189451826950     -0.208477015408 
   -0.097892583092      0.307887201657 
    0.150898414732     -0.074670345630 
    0.167198589176      0.410887726610 
    0.354448144728     -0.211749001025 
    0.029474866095      0.031082226892 
    0.039899480113     -0.027907493407 
    0.001741240873     -0.000199598946 
   -0.001402531898      0.002153000162 
    0.001133543894     -0.001437048444 
   -0.002067137387      0.001652019518 
   -0.000729718817     -0.002030035177 
    0.002378743191      0.000798813785 
    0.000000000000      0.000000000000 
    0.000000000000      0.000000000000 
    0.000000000000      0.000000000000 
    0.000000000000      0.000000000000 
    0.000000000000      0.000000000000 
    0.000000000000      0.000000000000 
    0.000000000000      0.000000000000 
    0.000000000000      0.000000000000 
    0.000000000000      0.000000000000 
    0.000000000000      0.000000000000 
    0.000000000000      0.000000000000 
    0.000000000000      0.000000000000 
    0.000000000000      0.000000000000 
    0.000000000000      0.000000000000 
    0.000000000000      0.000000000000 
    0.000000000000      0.000000000000 
    0.000000000000      0.000000000000 
    0.000000000000      0.000000000000 
    0.000000000000      0.000000000000 
    0.000000000000      0.000000000000 
    0.000000000000      0.000000000000 
    0.000000000000      0.000000000000 
    0.000000000000      0.000000000000 
    0.000000000000      0.000000000000 
    0.000000000000      0.000000000000 
    0.000000000000      0.000000000000 
    0.000000000000      0.000000000000 
    0.000000000000      0.000000000000 
    0.000000000000      0.000000000000 
    0.000000000000      0.000000000000 
   -0.241867535793      0.406804781680 
    0.063038930900      0.133530478393 
   -0.255860392418      0.148011052158 
    0.402934933094      0.016184976277 
    0.181484152695      0.261924429094 
   -0.443671696279     -0.315748480948 
   -0.046579077807      0.086022443594 
    0.201605930883     -0.227336080504 
   -0.001524260189      0.048666963451 
   -0.042144744834     -0.007661138522 
   -0.000375731307      0.000738493711 
   -0.000508505821     -0.002954511763 
    0.000279338143      0.001824279893 
    0.001653733440      0.001129846066 
   -0.001809605049     -0.000986824097 
    0.003080506711      0.000383253669 
    0.000000000000      0.000000000000 
    0.000000000000      0.000000000000 
    0.000000000000      0.000000000000 
    0.000000000000      0.000000000000 
    0.000000000000      0.000000000000 
    0.000000000000      0.000000000000 
    0.000000000000      0.000000000000 
    0.000000000000      0.000000000000 
    0.000000000000      0.000000000000 
    0.000000000000      0.000000000000 
    0.000000000000      0.000000000000 
    0.000000000000      0.000000000000 
    0.000000000000      0.000000000000 
    0.000000000000      0.000000000000 
    0.000000000000      0.000000000000 
    0.000000000000      0.000000000000 
    0.000000000000      0.000000000000 
    0.000000000000      0.000000000000 
    0.000000000000      0.000000000000 
    0.000000000000      0.000000000000 
    0.000000000000      0.000000000000 
    0.000000000000      0.000000000000 
    0.000000000000      0.000000000000 
    0.000000000000      0.000000000000 
    0.000000000000      0.000000000000 
    0.000000000000      0.000000000000 
    0.000000000000      0.000000000000 
    0.000000000000      0.000000000000 
    0.000000000000      0.000000000000 
    0.000000000000      0.000000000000 
   -0.146173150159      0.020921415853 
    0.206350304454     -0.425922043484 
   -0.391783965315     -0.095518784988 
   -0.205144432805     -0.212808772513 
   -0.170226475545     -0.431738385984 
   -0.257238907708     -0.334956695350 
    0.139800592035      0.121792883211 
   -0.213632857229      0.161922999474 
    0.029474866103      0.031082226892 
    0.039899480105     -0.027907493397 
   -0.002995272587     -0.000126727940 
   -0.000684416201      0.000467034709 
    0.001306314875      0.002370233883 
    0.000299861559      0.002405471622 
    0.000028775522      0.002064377307 
   -0.001929523426      0.000340719974 
    0.000000000000      0.000000000000 
    0.000000000000      0.000000000000 
    0.000000000000      0.000000000000 
    0.000000000000      0.000000000000 
    0.000000000000      0.000000000000 
    0.000000000000      0.000000000000 
    0.000000000000      0.000000000000 
    0.000000000000      0.000000000000 
    0.000000000000      0.000000000000 
    0.000000000000      0.000000000000 
    0.000000000000      0.000000000000 
    0.000000000000      0.000000000000 
    0.000000000000      0.000000000000 
    0.000000000000      0.000000000000 
    0.000000000000      0.000000000000 
    0.000000000000      0.000000000000 
    0.000000000000      0.000000000000 
    0.000000000000      0.000000000000 
    0.000000000000      0.000000000000 
    0.000000000000      0.000000000000 
    0.000000000000      0.000000000000 
    0.000000000000      0.000000000000 
    0.000000000000      0.000000000000 
    0.000000000000      0.000000000000 
    0.000000000000      0.000000000000 
    0.000000000000      0.000000000000 
    0.000000000000      0.000000000000 
    0.000000000000      0.000000000000 
    0.000000000000      0.000000000000 
    0.000000000000      0.000000000000 

