File written on 11Oct2023 at 18:31:44 

calc_only_A  :  F

begin real_lattice
   2.4349998   0.0000000   0.0000000
  -1.2174999   2.1087717   0.0000000
   0.0000000   0.0000000   9.7399993
end real_lattice

begin recip_lattice
   2.5803638   1.4897737   0.0000000
   0.0000000   2.9795474   0.0000000
   0.0000000   0.0000000   0.6450909
end recip_lattice

begin kpoints
   961
    0.00000000    0.00000000    0.00000000
    0.00000000    0.03225806    0.00000000
    0.00000000    0.06451613    0.00000000
    0.00000000    0.09677419    0.00000000
    0.00000000    0.12903226    0.00000000
    0.00000000    0.16129032    0.00000000
    0.00000000    0.19354839    0.00000000
    0.00000000    0.22580645    0.00000000
    0.00000000    0.25806452    0.00000000
    0.00000000    0.29032258    0.00000000
    0.00000000    0.32258065    0.00000000
    0.00000000    0.35483871    0.00000000
    0.00000000    0.38709677    0.00000000
    0.00000000    0.41935484    0.00000000
    0.00000000    0.45161290    0.00000000
    0.00000000    0.48387097    0.00000000
    0.00000000    0.51612903    0.00000000
    0.00000000    0.54838710    0.00000000
    0.00000000    0.58064516    0.00000000
    0.00000000    0.61290323    0.00000000
    0.00000000    0.64516129    0.00000000
    0.00000000    0.67741935    0.00000000
    0.00000000    0.70967742    0.00000000
    0.00000000    0.74193548    0.00000000
    0.00000000    0.77419355    0.00000000
    0.00000000    0.80645161    0.00000000
    0.00000000    0.83870968    0.00000000
    0.00000000    0.87096774    0.00000000
    0.00000000    0.90322581    0.00000000
    0.00000000    0.93548387    0.00000000
    0.00000000    0.96774194    0.00000000
    0.03225806    0.00000000    0.00000000
    0.03225806    0.03225806    0.00000000
    0.03225806    0.06451613    0.00000000
    0.03225806    0.09677419    0.00000000
    0.03225806    0.12903226    0.00000000
    0.03225806    0.16129032    0.00000000
    0.03225806    0.19354839    0.00000000
    0.03225806    0.22580645    0.00000000
    0.03225806    0.25806452    0.00000000
    0.03225806    0.29032258    0.00000000
    0.03225806    0.32258065    0.00000000
    0.03225806    0.35483871    0.00000000
    0.03225806    0.38709677    0.00000000
    0.03225806    0.41935484    0.00000000
    0.03225806    0.45161290    0.00000000
    0.03225806    0.48387097    0.00000000
    0.03225806    0.51612903    0.00000000
    0.03225806    0.54838710    0.00000000
    0.03225806    0.58064516    0.00000000
    0.03225806    0.61290323    0.00000000
    0.03225806    0.64516129    0.00000000
    0.03225806    0.67741935    0.00000000
    0.03225806    0.70967742    0.00000000
    0.03225806    0.74193548    0.00000000
    0.03225806    0.77419355    0.00000000
    0.03225806    0.80645161    0.00000000
    0.03225806    0.83870968    0.00000000
    0.03225806    0.87096774    0.00000000
    0.03225806    0.90322581    0.00000000
    0.03225806    0.93548387    0.00000000
    0.03225806    0.96774194    0.00000000
    0.06451613    0.00000000    0.00000000
    0.06451613    0.03225806    0.00000000
    0.06451613    0.06451613    0.00000000
    0.06451613    0.09677419    0.00000000
    0.06451613    0.12903226    0.00000000
    0.06451613    0.16129032    0.00000000
    0.06451613    0.19354839    0.00000000
    0.06451613    0.22580645    0.00000000
    0.06451613    0.25806452    0.00000000
    0.06451613    0.29032258    0.00000000
    0.06451613    0.32258065    0.00000000
    0.06451613    0.35483871    0.00000000
    0.06451613    0.38709677    0.00000000
    0.06451613    0.41935484    0.00000000
    0.06451613    0.45161290    0.00000000
    0.06451613    0.48387097    0.00000000
    0.06451613    0.51612903    0.00000000
    0.06451613    0.54838710    0.00000000
    0.06451613    0.58064516    0.00000000
    0.06451613    0.61290323    0.00000000
    0.06451613    0.64516129    0.00000000
    0.06451613    0.67741935    0.00000000
    0.06451613    0.70967742    0.00000000
    0.06451613    0.74193548    0.00000000
    0.06451613    0.77419355    0.00000000
    0.06451613    0.80645161    0.00000000
    0.06451613    0.83870968    0.00000000
    0.06451613    0.87096774    0.00000000
    0.06451613    0.90322581    0.00000000
    0.06451613    0.93548387    0.00000000
    0.06451613    0.96774194    0.00000000
    0.09677419    0.00000000    0.00000000
    0.09677419    0.03225806    0.00000000
    0.09677419    0.06451613    0.00000000
    0.09677419    0.09677419    0.00000000
    0.09677419    0.12903226    0.00000000
    0.09677419    0.16129032    0.00000000
    0.09677419    0.19354839    0.00000000
    0.09677419    0.22580645    0.00000000
    0.09677419    0.25806452    0.00000000
    0.09677419    0.29032258    0.00000000
    0.09677419    0.32258065    0.00000000
    0.09677419    0.35483871    0.00000000
    0.09677419    0.38709677    0.00000000
    0.09677419    0.41935484    0.00000000
    0.09677419    0.45161290    0.00000000
    0.09677419    0.48387097    0.00000000
    0.09677419    0.51612903    0.00000000
    0.09677419    0.54838710    0.00000000
    0.09677419    0.58064516    0.00000000
    0.09677419    0.61290323    0.00000000
    0.09677419    0.64516129    0.00000000
    0.09677419    0.67741935    0.00000000
    0.09677419    0.70967742    0.00000000
    0.09677419    0.74193548    0.00000000
    0.09677419    0.77419355    0.00000000
    0.09677419    0.80645161    0.00000000
    0.09677419    0.83870968    0.00000000
    0.09677419    0.87096774    0.00000000
    0.09677419    0.90322581    0.00000000
    0.09677419    0.93548387    0.00000000
    0.09677419    0.96774194    0.00000000
    0.12903226    0.00000000    0.00000000
    0.12903226    0.03225806    0.00000000
    0.12903226    0.06451613    0.00000000
    0.12903226    0.09677419    0.00000000
    0.12903226    0.12903226    0.00000000
    0.12903226    0.16129032    0.00000000
    0.12903226    0.19354839    0.00000000
    0.12903226    0.22580645    0.00000000
    0.12903226    0.25806452    0.00000000
    0.12903226    0.29032258    0.00000000
    0.12903226    0.32258065    0.00000000
    0.12903226    0.35483871    0.00000000
    0.12903226    0.38709677    0.00000000
    0.12903226    0.41935484    0.00000000
    0.12903226    0.45161290    0.00000000
    0.12903226    0.48387097    0.00000000
    0.12903226    0.51612903    0.00000000
    0.12903226    0.54838710    0.00000000
    0.12903226    0.58064516    0.00000000
    0.12903226    0.61290323    0.00000000
    0.12903226    0.64516129    0.00000000
    0.12903226    0.67741935    0.00000000
    0.12903226    0.70967742    0.00000000
    0.12903226    0.74193548    0.00000000
    0.12903226    0.77419355    0.00000000
    0.12903226    0.80645161    0.00000000
    0.12903226    0.83870968    0.00000000
    0.12903226    0.87096774    0.00000000
    0.12903226    0.90322581    0.00000000
    0.12903226    0.93548387    0.00000000
    0.12903226    0.96774194    0.00000000
    0.16129032    0.00000000    0.00000000
    0.16129032    0.03225806    0.00000000
    0.16129032    0.06451613    0.00000000
    0.16129032    0.09677419    0.00000000
    0.16129032    0.12903226    0.00000000
    0.16129032    0.16129032    0.00000000
    0.16129032    0.19354839    0.00000000
    0.16129032    0.22580645    0.00000000
    0.16129032    0.25806452    0.00000000
    0.16129032    0.29032258    0.00000000
    0.16129032    0.32258065    0.00000000
    0.16129032    0.35483871    0.00000000
    0.16129032    0.38709677    0.00000000
    0.16129032    0.41935484    0.00000000
    0.16129032    0.45161290    0.00000000
    0.16129032    0.48387097    0.00000000
    0.16129032    0.51612903    0.00000000
    0.16129032    0.54838710    0.00000000
    0.16129032    0.58064516    0.00000000
    0.16129032    0.61290323    0.00000000
    0.16129032    0.64516129    0.00000000
    0.16129032    0.67741935    0.00000000
    0.16129032    0.70967742    0.00000000
    0.16129032    0.74193548    0.00000000
    0.16129032    0.77419355    0.00000000
    0.16129032    0.80645161    0.00000000
    0.16129032    0.83870968    0.00000000
    0.16129032    0.87096774    0.00000000
    0.16129032    0.90322581    0.00000000
    0.16129032    0.93548387    0.00000000
    0.16129032    0.96774194    0.00000000
    0.19354839    0.00000000    0.00000000
    0.19354839    0.03225806    0.00000000
    0.19354839    0.06451613    0.00000000
    0.19354839    0.09677419    0.00000000
    0.19354839    0.12903226    0.00000000
    0.19354839    0.16129032    0.00000000
    0.19354839    0.19354839    0.00000000
    0.19354839    0.22580645    0.00000000
    0.19354839    0.25806452    0.00000000
    0.19354839    0.29032258    0.00000000
    0.19354839    0.32258065    0.00000000
    0.19354839    0.35483871    0.00000000
    0.19354839    0.38709677    0.00000000
    0.19354839    0.41935484    0.00000000
    0.19354839    0.45161290    0.00000000
    0.19354839    0.48387097    0.00000000
    0.19354839    0.51612903    0.00000000
    0.19354839    0.54838710    0.00000000
    0.19354839    0.58064516    0.00000000
    0.19354839    0.61290323    0.00000000
    0.19354839    0.64516129    0.00000000
    0.19354839    0.67741935    0.00000000
    0.19354839    0.70967742    0.00000000
    0.19354839    0.74193548    0.00000000
    0.19354839    0.77419355    0.00000000
    0.19354839    0.80645161    0.00000000
    0.19354839    0.83870968    0.00000000
    0.19354839    0.87096774    0.00000000
    0.19354839    0.90322581    0.00000000
    0.19354839    0.93548387    0.00000000
    0.19354839    0.96774194    0.00000000
    0.22580645    0.00000000    0.00000000
    0.22580645    0.03225806    0.00000000
    0.22580645    0.06451613    0.00000000
    0.22580645    0.09677419    0.00000000
    0.22580645    0.12903226    0.00000000
    0.22580645    0.16129032    0.00000000
    0.22580645    0.19354839    0.00000000
    0.22580645    0.22580645    0.00000000
    0.22580645    0.25806452    0.00000000
    0.22580645    0.29032258    0.00000000
    0.22580645    0.32258065    0.00000000
    0.22580645    0.35483871    0.00000000
    0.22580645    0.38709677    0.00000000
    0.22580645    0.41935484    0.00000000
    0.22580645    0.45161290    0.00000000
    0.22580645    0.48387097    0.00000000
    0.22580645    0.51612903    0.00000000
    0.22580645    0.54838710    0.00000000
    0.22580645    0.58064516    0.00000000
    0.22580645    0.61290323    0.00000000
    0.22580645    0.64516129    0.00000000
    0.22580645    0.67741935    0.00000000
    0.22580645    0.70967742    0.00000000
    0.22580645    0.74193548    0.00000000
    0.22580645    0.77419355    0.00000000
    0.22580645    0.80645161    0.00000000
    0.22580645    0.83870968    0.00000000
    0.22580645    0.87096774    0.00000000
    0.22580645    0.90322581    0.00000000
    0.22580645    0.93548387    0.00000000
    0.22580645    0.96774194    0.00000000
    0.25806452    0.00000000    0.00000000
    0.25806452    0.03225806    0.00000000
    0.25806452    0.06451613    0.00000000
    0.25806452    0.09677419    0.00000000
    0.25806452    0.12903226    0.00000000
    0.25806452    0.16129032    0.00000000
    0.25806452    0.19354839    0.00000000
    0.25806452    0.22580645    0.00000000
    0.25806452    0.25806452    0.00000000
    0.25806452    0.29032258    0.00000000
    0.25806452    0.32258065    0.00000000
    0.25806452    0.35483871    0.00000000
    0.25806452    0.38709677    0.00000000
    0.25806452    0.41935484    0.00000000
    0.25806452    0.45161290    0.00000000
    0.25806452    0.48387097    0.00000000
    0.25806452    0.51612903    0.00000000
    0.25806452    0.54838710    0.00000000
    0.25806452    0.58064516    0.00000000
    0.25806452    0.61290323    0.00000000
    0.25806452    0.64516129    0.00000000
    0.25806452    0.67741935    0.00000000
    0.25806452    0.70967742    0.00000000
    0.25806452    0.74193548    0.00000000
    0.25806452    0.77419355    0.00000000
    0.25806452    0.80645161    0.00000000
    0.25806452    0.83870968    0.00000000
    0.25806452    0.87096774    0.00000000
    0.25806452    0.90322581    0.00000000
    0.25806452    0.93548387    0.00000000
    0.25806452    0.96774194    0.00000000
    0.29032258    0.00000000    0.00000000
    0.29032258    0.03225806    0.00000000
    0.29032258    0.06451613    0.00000000
    0.29032258    0.09677419    0.00000000
    0.29032258    0.12903226    0.00000000
    0.29032258    0.16129032    0.00000000
    0.29032258    0.19354839    0.00000000
    0.29032258    0.22580645    0.00000000
    0.29032258    0.25806452    0.00000000
    0.29032258    0.29032258    0.00000000
    0.29032258    0.32258065    0.00000000
    0.29032258    0.35483871    0.00000000
    0.29032258    0.38709677    0.00000000
    0.29032258    0.41935484    0.00000000
    0.29032258    0.45161290    0.00000000
    0.29032258    0.48387097    0.00000000
    0.29032258    0.51612903    0.00000000
    0.29032258    0.54838710    0.00000000
    0.29032258    0.58064516    0.00000000
    0.29032258    0.61290323    0.00000000
    0.29032258    0.64516129    0.00000000
    0.29032258    0.67741935    0.00000000
    0.29032258    0.70967742    0.00000000
    0.29032258    0.74193548    0.00000000
    0.29032258    0.77419355    0.00000000
    0.29032258    0.80645161    0.00000000
    0.29032258    0.83870968    0.00000000
    0.29032258    0.87096774    0.00000000
    0.29032258    0.90322581    0.00000000
    0.29032258    0.93548387    0.00000000
    0.29032258    0.96774194    0.00000000
    0.32258065    0.00000000    0.00000000
    0.32258065    0.03225806    0.00000000
    0.32258065    0.06451613    0.00000000
    0.32258065    0.09677419    0.00000000
    0.32258065    0.12903226    0.00000000
    0.32258065    0.16129032    0.00000000
    0.32258065    0.19354839    0.00000000
    0.32258065    0.22580645    0.00000000
    0.32258065    0.25806452    0.00000000
    0.32258065    0.29032258    0.00000000
    0.32258065    0.32258065    0.00000000
    0.32258065    0.35483871    0.00000000
    0.32258065    0.38709677    0.00000000
    0.32258065    0.41935484    0.00000000
    0.32258065    0.45161290    0.00000000
    0.32258065    0.48387097    0.00000000
    0.32258065    0.51612903    0.00000000
    0.32258065    0.54838710    0.00000000
    0.32258065    0.58064516    0.00000000
    0.32258065    0.61290323    0.00000000
    0.32258065    0.64516129    0.00000000
    0.32258065    0.67741935    0.00000000
    0.32258065    0.70967742    0.00000000
    0.32258065    0.74193548    0.00000000
    0.32258065    0.77419355    0.00000000
    0.32258065    0.80645161    0.00000000
    0.32258065    0.83870968    0.00000000
    0.32258065    0.87096774    0.00000000
    0.32258065    0.90322581    0.00000000
    0.32258065    0.93548387    0.00000000
    0.32258065    0.96774194    0.00000000
    0.35483871    0.00000000    0.00000000
    0.35483871    0.03225806    0.00000000
    0.35483871    0.06451613    0.00000000
    0.35483871    0.09677419    0.00000000
    0.35483871    0.12903226    0.00000000
    0.35483871    0.16129032    0.00000000
    0.35483871    0.19354839    0.00000000
    0.35483871    0.22580645    0.00000000
    0.35483871    0.25806452    0.00000000
    0.35483871    0.29032258    0.00000000
    0.35483871    0.32258065    0.00000000
    0.35483871    0.35483871    0.00000000
    0.35483871    0.38709677    0.00000000
    0.35483871    0.41935484    0.00000000
    0.35483871    0.45161290    0.00000000
    0.35483871    0.48387097    0.00000000
    0.35483871    0.51612903    0.00000000
    0.35483871    0.54838710    0.00000000
    0.35483871    0.58064516    0.00000000
    0.35483871    0.61290323    0.00000000
    0.35483871    0.64516129    0.00000000
    0.35483871    0.67741935    0.00000000
    0.35483871    0.70967742    0.00000000
    0.35483871    0.74193548    0.00000000
    0.35483871    0.77419355    0.00000000
    0.35483871    0.80645161    0.00000000
    0.35483871    0.83870968    0.00000000
    0.35483871    0.87096774    0.00000000
    0.35483871    0.90322581    0.00000000
    0.35483871    0.93548387    0.00000000
    0.35483871    0.96774194    0.00000000
    0.38709677    0.00000000    0.00000000
    0.38709677    0.03225806    0.00000000
    0.38709677    0.06451613    0.00000000
    0.38709677    0.09677419    0.00000000
    0.38709677    0.12903226    0.00000000
    0.38709677    0.16129032    0.00000000
    0.38709677    0.19354839    0.00000000
    0.38709677    0.22580645    0.00000000
    0.38709677    0.25806452    0.00000000
    0.38709677    0.29032258    0.00000000
    0.38709677    0.32258065    0.00000000
    0.38709677    0.35483871    0.00000000
    0.38709677    0.38709677    0.00000000
    0.38709677    0.41935484    0.00000000
    0.38709677    0.45161290    0.00000000
    0.38709677    0.48387097    0.00000000
    0.38709677    0.51612903    0.00000000
    0.38709677    0.54838710    0.00000000
    0.38709677    0.58064516    0.00000000
    0.38709677    0.61290323    0.00000000
    0.38709677    0.64516129    0.00000000
    0.38709677    0.67741935    0.00000000
    0.38709677    0.70967742    0.00000000
    0.38709677    0.74193548    0.00000000
    0.38709677    0.77419355    0.00000000
    0.38709677    0.80645161    0.00000000
    0.38709677    0.83870968    0.00000000
    0.38709677    0.87096774    0.00000000
    0.38709677    0.90322581    0.00000000
    0.38709677    0.93548387    0.00000000
    0.38709677    0.96774194    0.00000000
    0.41935484    0.00000000    0.00000000
    0.41935484    0.03225806    0.00000000
    0.41935484    0.06451613    0.00000000
    0.41935484    0.09677419    0.00000000
    0.41935484    0.12903226    0.00000000
    0.41935484    0.16129032    0.00000000
    0.41935484    0.19354839    0.00000000
    0.41935484    0.22580645    0.00000000
    0.41935484    0.25806452    0.00000000
    0.41935484    0.29032258    0.00000000
    0.41935484    0.32258065    0.00000000
    0.41935484    0.35483871    0.00000000
    0.41935484    0.38709677    0.00000000
    0.41935484    0.41935484    0.00000000
    0.41935484    0.45161290    0.00000000
    0.41935484    0.48387097    0.00000000
    0.41935484    0.51612903    0.00000000
    0.41935484    0.54838710    0.00000000
    0.41935484    0.58064516    0.00000000
    0.41935484    0.61290323    0.00000000
    0.41935484    0.64516129    0.00000000
    0.41935484    0.67741935    0.00000000
    0.41935484    0.70967742    0.00000000
    0.41935484    0.74193548    0.00000000
    0.41935484    0.77419355    0.00000000
    0.41935484    0.80645161    0.00000000
    0.41935484    0.83870968    0.00000000
    0.41935484    0.87096774    0.00000000
    0.41935484    0.90322581    0.00000000
    0.41935484    0.93548387    0.00000000
    0.41935484    0.96774194    0.00000000
    0.45161290    0.00000000    0.00000000
    0.45161290    0.03225806    0.00000000
    0.45161290    0.06451613    0.00000000
    0.45161290    0.09677419    0.00000000
    0.45161290    0.12903226    0.00000000
    0.45161290    0.16129032    0.00000000
    0.45161290    0.19354839    0.00000000
    0.45161290    0.22580645    0.00000000
    0.45161290    0.25806452    0.00000000
    0.45161290    0.29032258    0.00000000
    0.45161290    0.32258065    0.00000000
    0.45161290    0.35483871    0.00000000
    0.45161290    0.38709677    0.00000000
    0.45161290    0.41935484    0.00000000
    0.45161290    0.45161290    0.00000000
    0.45161290    0.48387097    0.00000000
    0.45161290    0.51612903    0.00000000
    0.45161290    0.54838710    0.00000000
    0.45161290    0.58064516    0.00000000
    0.45161290    0.61290323    0.00000000
    0.45161290    0.64516129    0.00000000
    0.45161290    0.67741935    0.00000000
    0.45161290    0.70967742    0.00000000
    0.45161290    0.74193548    0.00000000
    0.45161290    0.77419355    0.00000000
    0.45161290    0.80645161    0.00000000
    0.45161290    0.83870968    0.00000000
    0.45161290    0.87096774    0.00000000
    0.45161290    0.90322581    0.00000000
    0.45161290    0.93548387    0.00000000
    0.45161290    0.96774194    0.00000000
    0.48387097    0.00000000    0.00000000
    0.48387097    0.03225806    0.00000000
    0.48387097    0.06451613    0.00000000
    0.48387097    0.09677419    0.00000000
    0.48387097    0.12903226    0.00000000
    0.48387097    0.16129032    0.00000000
    0.48387097    0.19354839    0.00000000
    0.48387097    0.22580645    0.00000000
    0.48387097    0.25806452    0.00000000
    0.48387097    0.29032258    0.00000000
    0.48387097    0.32258065    0.00000000
    0.48387097    0.35483871    0.00000000
    0.48387097    0.38709677    0.00000000
    0.48387097    0.41935484    0.00000000
    0.48387097    0.45161290    0.00000000
    0.48387097    0.48387097    0.00000000
    0.48387097    0.51612903    0.00000000
    0.48387097    0.54838710    0.00000000
    0.48387097    0.58064516    0.00000000
    0.48387097    0.61290323    0.00000000
    0.48387097    0.64516129    0.00000000
    0.48387097    0.67741935    0.00000000
    0.48387097    0.70967742    0.00000000
    0.48387097    0.74193548    0.00000000
    0.48387097    0.77419355    0.00000000
    0.48387097    0.80645161    0.00000000
    0.48387097    0.83870968    0.00000000
    0.48387097    0.87096774    0.00000000
    0.48387097    0.90322581    0.00000000
    0.48387097    0.93548387    0.00000000
    0.48387097    0.96774194    0.00000000
    0.51612903    0.00000000    0.00000000
    0.51612903    0.03225806    0.00000000
    0.51612903    0.06451613    0.00000000
    0.51612903    0.09677419    0.00000000
    0.51612903    0.12903226    0.00000000
    0.51612903    0.16129032    0.00000000
    0.51612903    0.19354839    0.00000000
    0.51612903    0.22580645    0.00000000
    0.51612903    0.25806452    0.00000000
    0.51612903    0.29032258    0.00000000
    0.51612903    0.32258065    0.00000000
    0.51612903    0.35483871    0.00000000
    0.51612903    0.38709677    0.00000000
    0.51612903    0.41935484    0.00000000
    0.51612903    0.45161290    0.00000000
    0.51612903    0.48387097    0.00000000
    0.51612903    0.51612903    0.00000000
    0.51612903    0.54838710    0.00000000
    0.51612903    0.58064516    0.00000000
    0.51612903    0.61290323    0.00000000
    0.51612903    0.64516129    0.00000000
    0.51612903    0.67741935    0.00000000
    0.51612903    0.70967742    0.00000000
    0.51612903    0.74193548    0.00000000
    0.51612903    0.77419355    0.00000000
    0.51612903    0.80645161    0.00000000
    0.51612903    0.83870968    0.00000000
    0.51612903    0.87096774    0.00000000
    0.51612903    0.90322581    0.00000000
    0.51612903    0.93548387    0.00000000
    0.51612903    0.96774194    0.00000000
    0.54838710    0.00000000    0.00000000
    0.54838710    0.03225806    0.00000000
    0.54838710    0.06451613    0.00000000
    0.54838710    0.09677419    0.00000000
    0.54838710    0.12903226    0.00000000
    0.54838710    0.16129032    0.00000000
    0.54838710    0.19354839    0.00000000
    0.54838710    0.22580645    0.00000000
    0.54838710    0.25806452    0.00000000
    0.54838710    0.29032258    0.00000000
    0.54838710    0.32258065    0.00000000
    0.54838710    0.35483871    0.00000000
    0.54838710    0.38709677    0.00000000
    0.54838710    0.41935484    0.00000000
    0.54838710    0.45161290    0.00000000
    0.54838710    0.48387097    0.00000000
    0.54838710    0.51612903    0.00000000
    0.54838710    0.54838710    0.00000000
    0.54838710    0.58064516    0.00000000
    0.54838710    0.61290323    0.00000000
    0.54838710    0.64516129    0.00000000
    0.54838710    0.67741935    0.00000000
    0.54838710    0.70967742    0.00000000
    0.54838710    0.74193548    0.00000000
    0.54838710    0.77419355    0.00000000
    0.54838710    0.80645161    0.00000000
    0.54838710    0.83870968    0.00000000
    0.54838710    0.87096774    0.00000000
    0.54838710    0.90322581    0.00000000
    0.54838710    0.93548387    0.00000000
    0.54838710    0.96774194    0.00000000
    0.58064516    0.00000000    0.00000000
    0.58064516    0.03225806    0.00000000
    0.58064516    0.06451613    0.00000000
    0.58064516    0.09677419    0.00000000
    0.58064516    0.12903226    0.00000000
    0.58064516    0.16129032    0.00000000
    0.58064516    0.19354839    0.00000000
    0.58064516    0.22580645    0.00000000
    0.58064516    0.25806452    0.00000000
    0.58064516    0.29032258    0.00000000
    0.58064516    0.32258065    0.00000000
    0.58064516    0.35483871    0.00000000
    0.58064516    0.38709677    0.00000000
    0.58064516    0.41935484    0.00000000
    0.58064516    0.45161290    0.00000000
    0.58064516    0.48387097    0.00000000
    0.58064516    0.51612903    0.00000000
    0.58064516    0.54838710    0.00000000
    0.58064516    0.58064516    0.00000000
    0.58064516    0.61290323    0.00000000
    0.58064516    0.64516129    0.00000000
    0.58064516    0.67741935    0.00000000
    0.58064516    0.70967742    0.00000000
    0.58064516    0.74193548    0.00000000
    0.58064516    0.77419355    0.00000000
    0.58064516    0.80645161    0.00000000
    0.58064516    0.83870968    0.00000000
    0.58064516    0.87096774    0.00000000
    0.58064516    0.90322581    0.00000000
    0.58064516    0.93548387    0.00000000
    0.58064516    0.96774194    0.00000000
    0.61290323    0.00000000    0.00000000
    0.61290323    0.03225806    0.00000000
    0.61290323    0.06451613    0.00000000
    0.61290323    0.09677419    0.00000000
    0.61290323    0.12903226    0.00000000
    0.61290323    0.16129032    0.00000000
    0.61290323    0.19354839    0.00000000
    0.61290323    0.22580645    0.00000000
    0.61290323    0.25806452    0.00000000
    0.61290323    0.29032258    0.00000000
    0.61290323    0.32258065    0.00000000
    0.61290323    0.35483871    0.00000000
    0.61290323    0.38709677    0.00000000
    0.61290323    0.41935484    0.00000000
    0.61290323    0.45161290    0.00000000
    0.61290323    0.48387097    0.00000000
    0.61290323    0.51612903    0.00000000
    0.61290323    0.54838710    0.00000000
    0.61290323    0.58064516    0.00000000
    0.61290323    0.61290323    0.00000000
    0.61290323    0.64516129    0.00000000
    0.61290323    0.67741935    0.00000000
    0.61290323    0.70967742    0.00000000
    0.61290323    0.74193548    0.00000000
    0.61290323    0.77419355    0.00000000
    0.61290323    0.80645161    0.00000000
    0.61290323    0.83870968    0.00000000
    0.61290323    0.87096774    0.00000000
    0.61290323    0.90322581    0.00000000
    0.61290323    0.93548387    0.00000000
    0.61290323    0.96774194    0.00000000
    0.64516129    0.00000000    0.00000000
    0.64516129    0.03225806    0.00000000
    0.64516129    0.06451613    0.00000000
    0.64516129    0.09677419    0.00000000
    0.64516129    0.12903226    0.00000000
    0.64516129    0.16129032    0.00000000
    0.64516129    0.19354839    0.00000000
    0.64516129    0.22580645    0.00000000
    0.64516129    0.25806452    0.00000000
    0.64516129    0.29032258    0.00000000
    0.64516129    0.32258065    0.00000000
    0.64516129    0.35483871    0.00000000
    0.64516129    0.38709677    0.00000000
    0.64516129    0.41935484    0.00000000
    0.64516129    0.45161290    0.00000000
    0.64516129    0.48387097    0.00000000
    0.64516129    0.51612903    0.00000000
    0.64516129    0.54838710    0.00000000
    0.64516129    0.58064516    0.00000000
    0.64516129    0.61290323    0.00000000
    0.64516129    0.64516129    0.00000000
    0.64516129    0.67741935    0.00000000
    0.64516129    0.70967742    0.00000000
    0.64516129    0.74193548    0.00000000
    0.64516129    0.77419355    0.00000000
    0.64516129    0.80645161    0.00000000
    0.64516129    0.83870968    0.00000000
    0.64516129    0.87096774    0.00000000
    0.64516129    0.90322581    0.00000000
    0.64516129    0.93548387    0.00000000
    0.64516129    0.96774194    0.00000000
    0.67741935    0.00000000    0.00000000
    0.67741935    0.03225806    0.00000000
    0.67741935    0.06451613    0.00000000
    0.67741935    0.09677419    0.00000000
    0.67741935    0.12903226    0.00000000
    0.67741935    0.16129032    0.00000000
    0.67741935    0.19354839    0.00000000
    0.67741935    0.22580645    0.00000000
    0.67741935    0.25806452    0.00000000
    0.67741935    0.29032258    0.00000000
    0.67741935    0.32258065    0.00000000
    0.67741935    0.35483871    0.00000000
    0.67741935    0.38709677    0.00000000
    0.67741935    0.41935484    0.00000000
    0.67741935    0.45161290    0.00000000
    0.67741935    0.48387097    0.00000000
    0.67741935    0.51612903    0.00000000
    0.67741935    0.54838710    0.00000000
    0.67741935    0.58064516    0.00000000
    0.67741935    0.61290323    0.00000000
    0.67741935    0.64516129    0.00000000
    0.67741935    0.67741935    0.00000000
    0.67741935    0.70967742    0.00000000
    0.67741935    0.74193548    0.00000000
    0.67741935    0.77419355    0.00000000
    0.67741935    0.80645161    0.00000000
    0.67741935    0.83870968    0.00000000
    0.67741935    0.87096774    0.00000000
    0.67741935    0.90322581    0.00000000
    0.67741935    0.93548387    0.00000000
    0.67741935    0.96774194    0.00000000
    0.70967742    0.00000000    0.00000000
    0.70967742    0.03225806    0.00000000
    0.70967742    0.06451613    0.00000000
    0.70967742    0.09677419    0.00000000
    0.70967742    0.12903226    0.00000000
    0.70967742    0.16129032    0.00000000
    0.70967742    0.19354839    0.00000000
    0.70967742    0.22580645    0.00000000
    0.70967742    0.25806452    0.00000000
    0.70967742    0.29032258    0.00000000
    0.70967742    0.32258065    0.00000000
    0.70967742    0.35483871    0.00000000
    0.70967742    0.38709677    0.00000000
    0.70967742    0.41935484    0.00000000
    0.70967742    0.45161290    0.00000000
    0.70967742    0.48387097    0.00000000
    0.70967742    0.51612903    0.00000000
    0.70967742    0.54838710    0.00000000
    0.70967742    0.58064516    0.00000000
    0.70967742    0.61290323    0.00000000
    0.70967742    0.64516129    0.00000000
    0.70967742    0.67741935    0.00000000
    0.70967742    0.70967742    0.00000000
    0.70967742    0.74193548    0.00000000
    0.70967742    0.77419355    0.00000000
    0.70967742    0.80645161    0.00000000
    0.70967742    0.83870968    0.00000000
    0.70967742    0.87096774    0.00000000
    0.70967742    0.90322581    0.00000000
    0.70967742    0.93548387    0.00000000
    0.70967742    0.96774194    0.00000000
    0.74193548    0.00000000    0.00000000
    0.74193548    0.03225806    0.00000000
    0.74193548    0.06451613    0.00000000
    0.74193548    0.09677419    0.00000000
    0.74193548    0.12903226    0.00000000
    0.74193548    0.16129032    0.00000000
    0.74193548    0.19354839    0.00000000
    0.74193548    0.22580645    0.00000000
    0.74193548    0.25806452    0.00000000
    0.74193548    0.29032258    0.00000000
    0.74193548    0.32258065    0.00000000
    0.74193548    0.35483871    0.00000000
    0.74193548    0.38709677    0.00000000
    0.74193548    0.41935484    0.00000000
    0.74193548    0.45161290    0.00000000
    0.74193548    0.48387097    0.00000000
    0.74193548    0.51612903    0.00000000
    0.74193548    0.54838710    0.00000000
    0.74193548    0.58064516    0.00000000
    0.74193548    0.61290323    0.00000000
    0.74193548    0.64516129    0.00000000
    0.74193548    0.67741935    0.00000000
    0.74193548    0.70967742    0.00000000
    0.74193548    0.74193548    0.00000000
    0.74193548    0.77419355    0.00000000
    0.74193548    0.80645161    0.00000000
    0.74193548    0.83870968    0.00000000
    0.74193548    0.87096774    0.00000000
    0.74193548    0.90322581    0.00000000
    0.74193548    0.93548387    0.00000000
    0.74193548    0.96774194    0.00000000
    0.77419355    0.00000000    0.00000000
    0.77419355    0.03225806    0.00000000
    0.77419355    0.06451613    0.00000000
    0.77419355    0.09677419    0.00000000
    0.77419355    0.12903226    0.00000000
    0.77419355    0.16129032    0.00000000
    0.77419355    0.19354839    0.00000000
    0.77419355    0.22580645    0.00000000
    0.77419355    0.25806452    0.00000000
    0.77419355    0.29032258    0.00000000
    0.77419355    0.32258065    0.00000000
    0.77419355    0.35483871    0.00000000
    0.77419355    0.38709677    0.00000000
    0.77419355    0.41935484    0.00000000
    0.77419355    0.45161290    0.00000000
    0.77419355    0.48387097    0.00000000
    0.77419355    0.51612903    0.00000000
    0.77419355    0.54838710    0.00000000
    0.77419355    0.58064516    0.00000000
    0.77419355    0.61290323    0.00000000
    0.77419355    0.64516129    0.00000000
    0.77419355    0.67741935    0.00000000
    0.77419355    0.70967742    0.00000000
    0.77419355    0.74193548    0.00000000
    0.77419355    0.77419355    0.00000000
    0.77419355    0.80645161    0.00000000
    0.77419355    0.83870968    0.00000000
    0.77419355    0.87096774    0.00000000
    0.77419355    0.90322581    0.00000000
    0.77419355    0.93548387    0.00000000
    0.77419355    0.96774194    0.00000000
    0.80645161    0.00000000    0.00000000
    0.80645161    0.03225806    0.00000000
    0.80645161    0.06451613    0.00000000
    0.80645161    0.09677419    0.00000000
    0.80645161    0.12903226    0.00000000
    0.80645161    0.16129032    0.00000000
    0.80645161    0.19354839    0.00000000
    0.80645161    0.22580645    0.00000000
    0.80645161    0.25806452    0.00000000
    0.80645161    0.29032258    0.00000000
    0.80645161    0.32258065    0.00000000
    0.80645161    0.35483871    0.00000000
    0.80645161    0.38709677    0.00000000
    0.80645161    0.41935484    0.00000000
    0.80645161    0.45161290    0.00000000
    0.80645161    0.48387097    0.00000000
    0.80645161    0.51612903    0.00000000
    0.80645161    0.54838710    0.00000000
    0.80645161    0.58064516    0.00000000
    0.80645161    0.61290323    0.00000000
    0.80645161    0.64516129    0.00000000
    0.80645161    0.67741935    0.00000000
    0.80645161    0.70967742    0.00000000
    0.80645161    0.74193548    0.00000000
    0.80645161    0.77419355    0.00000000
    0.80645161    0.80645161    0.00000000
    0.80645161    0.83870968    0.00000000
    0.80645161    0.87096774    0.00000000
    0.80645161    0.90322581    0.00000000
    0.80645161    0.93548387    0.00000000
    0.80645161    0.96774194    0.00000000
    0.83870968    0.00000000    0.00000000
    0.83870968    0.03225806    0.00000000
    0.83870968    0.06451613    0.00000000
    0.83870968    0.09677419    0.00000000
    0.83870968    0.12903226    0.00000000
    0.83870968    0.16129032    0.00000000
    0.83870968    0.19354839    0.00000000
    0.83870968    0.22580645    0.00000000
    0.83870968    0.25806452    0.00000000
    0.83870968    0.29032258    0.00000000
    0.83870968    0.32258065    0.00000000
    0.83870968    0.35483871    0.00000000
    0.83870968    0.38709677    0.00000000
    0.83870968    0.41935484    0.00000000
    0.83870968    0.45161290    0.00000000
    0.83870968    0.48387097    0.00000000
    0.83870968    0.51612903    0.00000000
    0.83870968    0.54838710    0.00000000
    0.83870968    0.58064516    0.00000000
    0.83870968    0.61290323    0.00000000
    0.83870968    0.64516129    0.00000000
    0.83870968    0.67741935    0.00000000
    0.83870968    0.70967742    0.00000000
    0.83870968    0.74193548    0.00000000
    0.83870968    0.77419355    0.00000000
    0.83870968    0.80645161    0.00000000
    0.83870968    0.83870968    0.00000000
    0.83870968    0.87096774    0.00000000
    0.83870968    0.90322581    0.00000000
    0.83870968    0.93548387    0.00000000
    0.83870968    0.96774194    0.00000000
    0.87096774    0.00000000    0.00000000
    0.87096774    0.03225806    0.00000000
    0.87096774    0.06451613    0.00000000
    0.87096774    0.09677419    0.00000000
    0.87096774    0.12903226    0.00000000
    0.87096774    0.16129032    0.00000000
    0.87096774    0.19354839    0.00000000
    0.87096774    0.22580645    0.00000000
    0.87096774    0.25806452    0.00000000
    0.87096774    0.29032258    0.00000000
    0.87096774    0.32258065    0.00000000
    0.87096774    0.35483871    0.00000000
    0.87096774    0.38709677    0.00000000
    0.87096774    0.41935484    0.00000000
    0.87096774    0.45161290    0.00000000
    0.87096774    0.48387097    0.00000000
    0.87096774    0.51612903    0.00000000
    0.87096774    0.54838710    0.00000000
    0.87096774    0.58064516    0.00000000
    0.87096774    0.61290323    0.00000000
    0.87096774    0.64516129    0.00000000
    0.87096774    0.67741935    0.00000000
    0.87096774    0.70967742    0.00000000
    0.87096774    0.74193548    0.00000000
    0.87096774    0.77419355    0.00000000
    0.87096774    0.80645161    0.00000000
    0.87096774    0.83870968    0.00000000
    0.87096774    0.87096774    0.00000000
    0.87096774    0.90322581    0.00000000
    0.87096774    0.93548387    0.00000000
    0.87096774    0.96774194    0.00000000
    0.90322581    0.00000000    0.00000000
    0.90322581    0.03225806    0.00000000
    0.90322581    0.06451613    0.00000000
    0.90322581    0.09677419    0.00000000
    0.90322581    0.12903226    0.00000000
    0.90322581    0.16129032    0.00000000
    0.90322581    0.19354839    0.00000000
    0.90322581    0.22580645    0.00000000
    0.90322581    0.25806452    0.00000000
    0.90322581    0.29032258    0.00000000
    0.90322581    0.32258065    0.00000000
    0.90322581    0.35483871    0.00000000
    0.90322581    0.38709677    0.00000000
    0.90322581    0.41935484    0.00000000
    0.90322581    0.45161290    0.00000000
    0.90322581    0.48387097    0.00000000
    0.90322581    0.51612903    0.00000000
    0.90322581    0.54838710    0.00000000
    0.90322581    0.58064516    0.00000000
    0.90322581    0.61290323    0.00000000
    0.90322581    0.64516129    0.00000000
    0.90322581    0.67741935    0.00000000
    0.90322581    0.70967742    0.00000000
    0.90322581    0.74193548    0.00000000
    0.90322581    0.77419355    0.00000000
    0.90322581    0.80645161    0.00000000
    0.90322581    0.83870968    0.00000000
    0.90322581    0.87096774    0.00000000
    0.90322581    0.90322581    0.00000000
    0.90322581    0.93548387    0.00000000
    0.90322581    0.96774194    0.00000000
    0.93548387    0.00000000    0.00000000
    0.93548387    0.03225806    0.00000000
    0.93548387    0.06451613    0.00000000
    0.93548387    0.09677419    0.00000000
    0.93548387    0.12903226    0.00000000
    0.93548387    0.16129032    0.00000000
    0.93548387    0.19354839    0.00000000
    0.93548387    0.22580645    0.00000000
    0.93548387    0.25806452    0.00000000
    0.93548387    0.29032258    0.00000000
    0.93548387    0.32258065    0.00000000
    0.93548387    0.35483871    0.00000000
    0.93548387    0.38709677    0.00000000
    0.93548387    0.41935484    0.00000000
    0.93548387    0.45161290    0.00000000
    0.93548387    0.48387097    0.00000000
    0.93548387    0.51612903    0.00000000
    0.93548387    0.54838710    0.00000000
    0.93548387    0.58064516    0.00000000
    0.93548387    0.61290323    0.00000000
    0.93548387    0.64516129    0.00000000
    0.93548387    0.67741935    0.00000000
    0.93548387    0.70967742    0.00000000
    0.93548387    0.74193548    0.00000000
    0.93548387    0.77419355    0.00000000
    0.93548387    0.80645161    0.00000000
    0.93548387    0.83870968    0.00000000
    0.93548387    0.87096774    0.00000000
    0.93548387    0.90322581    0.00000000
    0.93548387    0.93548387    0.00000000
    0.93548387    0.96774194    0.00000000
    0.96774194    0.00000000    0.00000000
    0.96774194    0.03225806    0.00000000
    0.96774194    0.06451613    0.00000000
    0.96774194    0.09677419    0.00000000
    0.96774194    0.12903226    0.00000000
    0.96774194    0.16129032    0.00000000
    0.96774194    0.19354839    0.00000000
    0.96774194    0.22580645    0.00000000
    0.96774194    0.25806452    0.00000000
    0.96774194    0.29032258    0.00000000
    0.96774194    0.32258065    0.00000000
    0.96774194    0.35483871    0.00000000
    0.96774194    0.38709677    0.00000000
    0.96774194    0.41935484    0.00000000
    0.96774194    0.45161290    0.00000000
    0.96774194    0.48387097    0.00000000
    0.96774194    0.51612903    0.00000000
    0.96774194    0.54838710    0.00000000
    0.96774194    0.58064516    0.00000000
    0.96774194    0.61290323    0.00000000
    0.96774194    0.64516129    0.00000000
    0.96774194    0.67741935    0.00000000
    0.96774194    0.70967742    0.00000000
    0.96774194    0.74193548    0.00000000
    0.96774194    0.77419355    0.00000000
    0.96774194    0.80645161    0.00000000
    0.96774194    0.83870968    0.00000000
    0.96774194    0.87096774    0.00000000
    0.96774194    0.90322581    0.00000000
    0.96774194    0.93548387    0.00000000
    0.96774194    0.96774194    0.00000000
end kpoints

begin projections
     8
   0.66667    0.33333    0.00000     0  1  1
    0.0000000  0.0000000  1.0000000   1.0000000  0.0000000  0.0000000    1.00
   0.66667    0.33333    0.00000     1  1  1
    0.0000000  0.0000000  1.0000000   1.0000000  0.0000000  0.0000000    1.00
   0.66667    0.33333    0.00000     1  2  1
    0.0000000  0.0000000  1.0000000   1.0000000  0.0000000  0.0000000    1.00
   0.66667    0.33333    0.00000     1  3  1
    0.0000000  0.0000000  1.0000000   1.0000000  0.0000000  0.0000000    1.00
   0.33333    0.66667    0.00000     0  1  1
    0.0000000  0.0000000  1.0000000   1.0000000  0.0000000  0.0000000    1.00
   0.33333    0.66667    0.00000     1  1  1
    0.0000000  0.0000000  1.0000000   1.0000000  0.0000000  0.0000000    1.00
   0.33333    0.66667    0.00000     1  2  1
    0.0000000  0.0000000  1.0000000   1.0000000  0.0000000  0.0000000    1.00
   0.33333    0.66667    0.00000     1  3  1
    0.0000000  0.0000000  1.0000000   1.0000000  0.0000000  0.0000000    1.00
end projections

begin nnkpts
   8
     1     2      0   0   0
     1    32      0   0   0
     1    31      0  -1   0
     1    62      0  -1   0
     1   931     -1   0   0
     1   932     -1   0   0
     1     1      0   0   1
     1     1      0   0  -1
     2     1      0   0   0
     2     3      0   0   0
     2    32      0   0   0
     2    33      0   0   0
     2   932     -1   0   0
     2   933     -1   0   0
     2     2      0   0   1
     2     2      0   0  -1
     3     2      0   0   0
     3     4      0   0   0
     3    33      0   0   0
     3    34      0   0   0
     3   933     -1   0   0
     3   934     -1   0   0
     3     3      0   0   1
     3     3      0   0  -1
     4     3      0   0   0
     4     5      0   0   0
     4    34      0   0   0
     4    35      0   0   0
     4   934     -1   0   0
     4   935     -1   0   0
     4     4      0   0   1
     4     4      0   0  -1
     5     4      0   0   0
     5     6      0   0   0
     5    35      0   0   0
     5    36      0   0   0
     5   935     -1   0   0
     5   936     -1   0   0
     5     5      0   0   1
     5     5      0   0  -1
     6     5      0   0   0
     6     7      0   0   0
     6    36      0   0   0
     6    37      0   0   0
     6   936     -1   0   0
     6   937     -1   0   0
     6     6      0   0   1
     6     6      0   0  -1
     7     6      0   0   0
     7     8      0   0   0
     7    37      0   0   0
     7    38      0   0   0
     7   937     -1   0   0
     7   938     -1   0   0
     7     7      0   0   1
     7     7      0   0  -1
     8     7      0   0   0
     8     9      0   0   0
     8    38      0   0   0
     8    39      0   0   0
     8   938     -1   0   0
     8   939     -1   0   0
     8     8      0   0   1
     8     8      0   0  -1
     9     8      0   0   0
     9    10      0   0   0
     9    39      0   0   0
     9    40      0   0   0
     9   939     -1   0   0
     9   940     -1   0   0
     9     9      0   0   1
     9     9      0   0  -1
    10     9      0   0   0
    10    11      0   0   0
    10    40      0   0   0
    10    41      0   0   0
    10   940     -1   0   0
    10   941     -1   0   0
    10    10      0   0   1
    10    10      0   0  -1
    11    10      0   0   0
    11    12      0   0   0
    11    41      0   0   0
    11    42      0   0   0
    11   941     -1   0   0
    11   942     -1   0   0
    11    11      0   0   1
    11    11      0   0  -1
    12    11      0   0   0
    12    13      0   0   0
    12    42      0   0   0
    12    43      0   0   0
    12   942     -1   0   0
    12   943     -1   0   0
    12    12      0   0   1
    12    12      0   0  -1
    13    12      0   0   0
    13    14      0   0   0
    13    43      0   0   0
    13    44      0   0   0
    13   943     -1   0   0
    13   944     -1   0   0
    13    13      0   0   1
    13    13      0   0  -1
    14    13      0   0   0
    14    15      0   0   0
    14    44      0   0   0
    14    45      0   0   0
    14   944     -1   0   0
    14   945     -1   0   0
    14    14      0   0   1
    14    14      0   0  -1
    15    14      0   0   0
    15    16      0   0   0
    15    45      0   0   0
    15    46      0   0   0
    15   945     -1   0   0
    15   946     -1   0   0
    15    15      0   0   1
    15    15      0   0  -1
    16    15      0   0   0
    16    17      0   0   0
    16    46      0   0   0
    16    47      0   0   0
    16   946     -1   0   0
    16   947     -1   0   0
    16    16      0   0   1
    16    16      0   0  -1
    17    16      0   0   0
    17    18      0   0   0
    17    47      0   0   0
    17    48      0   0   0
    17   947     -1   0   0
    17   948     -1   0   0
    17    17      0   0   1
    17    17      0   0  -1
    18    17      0   0   0
    18    19      0   0   0
    18    48      0   0   0
    18    49      0   0   0
    18   948     -1   0   0
    18   949     -1   0   0
    18    18      0   0   1
    18    18      0   0  -1
    19    18      0   0   0
    19    20      0   0   0
    19    49      0   0   0
    19    50      0   0   0
    19   949     -1   0   0
    19   950     -1   0   0
    19    19      0   0   1
    19    19      0   0  -1
    20    19      0   0   0
    20    21      0   0   0
    20    50      0   0   0
    20    51      0   0   0
    20   950     -1   0   0
    20   951     -1   0   0
    20    20      0   0   1
    20    20      0   0  -1
    21    20      0   0   0
    21    22      0   0   0
    21    51      0   0   0
    21    52      0   0   0
    21   951     -1   0   0
    21   952     -1   0   0
    21    21      0   0   1
    21    21      0   0  -1
    22    21      0   0   0
    22    23      0   0   0
    22    52      0   0   0
    22    53      0   0   0
    22   952     -1   0   0
    22   953     -1   0   0
    22    22      0   0   1
    22    22      0   0  -1
    23    22      0   0   0
    23    24      0   0   0
    23    53      0   0   0
    23    54      0   0   0
    23   953     -1   0   0
    23   954     -1   0   0
    23    23      0   0   1
    23    23      0   0  -1
    24    23      0   0   0
    24    25      0   0   0
    24    54      0   0   0
    24    55      0   0   0
    24   954     -1   0   0
    24   955     -1   0   0
    24    24      0   0   1
    24    24      0   0  -1
    25    24      0   0   0
    25    26      0   0   0
    25    55      0   0   0
    25    56      0   0   0
    25   955     -1   0   0
    25   956     -1   0   0
    25    25      0   0   1
    25    25      0   0  -1
    26    25      0   0   0
    26    27      0   0   0
    26    56      0   0   0
    26    57      0   0   0
    26   956     -1   0   0
    26   957     -1   0   0
    26    26      0   0   1
    26    26      0   0  -1
    27    26      0   0   0
    27    28      0   0   0
    27    57      0   0   0
    27    58      0   0   0
    27   957     -1   0   0
    27   958     -1   0   0
    27    27      0   0   1
    27    27      0   0  -1
    28    27      0   0   0
    28    29      0   0   0
    28    58      0   0   0
    28    59      0   0   0
    28   958     -1   0   0
    28   959     -1   0   0
    28    28      0   0   1
    28    28      0   0  -1
    29    28      0   0   0
    29    30      0   0   0
    29    59      0   0   0
    29    60      0   0   0
    29   959     -1   0   0
    29   960     -1   0   0
    29    29      0   0   1
    29    29      0   0  -1
    30    29      0   0   0
    30    31      0   0   0
    30    60      0   0   0
    30    61      0   0   0
    30   960     -1   0   0
    30   961     -1   0   0
    30    30      0   0   1
    30    30      0   0  -1
    31    30      0   0   0
    31    61      0   0   0
    31    62      0   0   0
    31     1      0   1   0
    31   931     -1   1   0
    31   961     -1   0   0
    31    31      0   0   1
    31    31      0   0  -1
    32     1      0   0   0
    32     2      0   0   0
    32    33      0   0   0
    32    63      0   0   0
    32    62      0  -1   0
    32    93      0  -1   0
    32    32      0   0   1
    32    32      0   0  -1
    33     2      0   0   0
    33     3      0   0   0
    33    32      0   0   0
    33    34      0   0   0
    33    63      0   0   0
    33    64      0   0   0
    33    33      0   0   1
    33    33      0   0  -1
    34     3      0   0   0
    34     4      0   0   0
    34    33      0   0   0
    34    35      0   0   0
    34    64      0   0   0
    34    65      0   0   0
    34    34      0   0   1
    34    34      0   0  -1
    35     4      0   0   0
    35     5      0   0   0
    35    34      0   0   0
    35    36      0   0   0
    35    65      0   0   0
    35    66      0   0   0
    35    35      0   0   1
    35    35      0   0  -1
    36     5      0   0   0
    36     6      0   0   0
    36    35      0   0   0
    36    37      0   0   0
    36    66      0   0   0
    36    67      0   0   0
    36    36      0   0   1
    36    36      0   0  -1
    37     6      0   0   0
    37     7      0   0   0
    37    36      0   0   0
    37    38      0   0   0
    37    67      0   0   0
    37    68      0   0   0
    37    37      0   0   1
    37    37      0   0  -1
    38     7      0   0   0
    38     8      0   0   0
    38    37      0   0   0
    38    39      0   0   0
    38    68      0   0   0
    38    69      0   0   0
    38    38      0   0   1
    38    38      0   0  -1
    39     8      0   0   0
    39     9      0   0   0
    39    38      0   0   0
    39    40      0   0   0
    39    69      0   0   0
    39    70      0   0   0
    39    39      0   0   1
    39    39      0   0  -1
    40     9      0   0   0
    40    10      0   0   0
    40    39      0   0   0
    40    41      0   0   0
    40    70      0   0   0
    40    71      0   0   0
    40    40      0   0   1
    40    40      0   0  -1
    41    10      0   0   0
    41    11      0   0   0
    41    40      0   0   0
    41    42      0   0   0
    41    71      0   0   0
    41    72      0   0   0
    41    41      0   0   1
    41    41      0   0  -1
    42    11      0   0   0
    42    12      0   0   0
    42    41      0   0   0
    42    43      0   0   0
    42    72      0   0   0
    42    73      0   0   0
    42    42      0   0   1
    42    42      0   0  -1
    43    12      0   0   0
    43    13      0   0   0
    43    42      0   0   0
    43    44      0   0   0
    43    73      0   0   0
    43    74      0   0   0
    43    43      0   0   1
    43    43      0   0  -1
    44    13      0   0   0
    44    14      0   0   0
    44    43      0   0   0
    44    45      0   0   0
    44    74      0   0   0
    44    75      0   0   0
    44    44      0   0   1
    44    44      0   0  -1
    45    14      0   0   0
    45    15      0   0   0
    45    44      0   0   0
    45    46      0   0   0
    45    75      0   0   0
    45    76      0   0   0
    45    45      0   0   1
    45    45      0   0  -1
    46    15      0   0   0
    46    16      0   0   0
    46    45      0   0   0
    46    47      0   0   0
    46    76      0   0   0
    46    77      0   0   0
    46    46      0   0   1
    46    46      0   0  -1
    47    16      0   0   0
    47    17      0   0   0
    47    46      0   0   0
    47    48      0   0   0
    47    77      0   0   0
    47    78      0   0   0
    47    47      0   0   1
    47    47      0   0  -1
    48    17      0   0   0
    48    18      0   0   0
    48    47      0   0   0
    48    49      0   0   0
    48    78      0   0   0
    48    79      0   0   0
    48    48      0   0   1
    48    48      0   0  -1
    49    18      0   0   0
    49    19      0   0   0
    49    48      0   0   0
    49    50      0   0   0
    49    79      0   0   0
    49    80      0   0   0
    49    49      0   0   1
    49    49      0   0  -1
    50    19      0   0   0
    50    20      0   0   0
    50    49      0   0   0
    50    51      0   0   0
    50    80      0   0   0
    50    81      0   0   0
    50    50      0   0   1
    50    50      0   0  -1
    51    20      0   0   0
    51    21      0   0   0
    51    50      0   0   0
    51    52      0   0   0
    51    81      0   0   0
    51    82      0   0   0
    51    51      0   0   1
    51    51      0   0  -1
    52    21      0   0   0
    52    22      0   0   0
    52    51      0   0   0
    52    53      0   0   0
    52    82      0   0   0
    52    83      0   0   0
    52    52      0   0   1
    52    52      0   0  -1
    53    22      0   0   0
    53    23      0   0   0
    53    52      0   0   0
    53    54      0   0   0
    53    83      0   0   0
    53    84      0   0   0
    53    53      0   0   1
    53    53      0   0  -1
    54    23      0   0   0
    54    24      0   0   0
    54    53      0   0   0
    54    55      0   0   0
    54    84      0   0   0
    54    85      0   0   0
    54    54      0   0   1
    54    54      0   0  -1
    55    24      0   0   0
    55    25      0   0   0
    55    54      0   0   0
    55    56      0   0   0
    55    85      0   0   0
    55    86      0   0   0
    55    55      0   0   1
    55    55      0   0  -1
    56    25      0   0   0
    56    26      0   0   0
    56    55      0   0   0
    56    57      0   0   0
    56    86      0   0   0
    56    87      0   0   0
    56    56      0   0   1
    56    56      0   0  -1
    57    26      0   0   0
    57    27      0   0   0
    57    56      0   0   0
    57    58      0   0   0
    57    87      0   0   0
    57    88      0   0   0
    57    57      0   0   1
    57    57      0   0  -1
    58    27      0   0   0
    58    28      0   0   0
    58    57      0   0   0
    58    59      0   0   0
    58    88      0   0   0
    58    89      0   0   0
    58    58      0   0   1
    58    58      0   0  -1
    59    28      0   0   0
    59    29      0   0   0
    59    58      0   0   0
    59    60      0   0   0
    59    89      0   0   0
    59    90      0   0   0
    59    59      0   0   1
    59    59      0   0  -1
    60    29      0   0   0
    60    30      0   0   0
    60    59      0   0   0
    60    61      0   0   0
    60    90      0   0   0
    60    91      0   0   0
    60    60      0   0   1
    60    60      0   0  -1
    61    30      0   0   0
    61    31      0   0   0
    61    60      0   0   0
    61    62      0   0   0
    61    91      0   0   0
    61    92      0   0   0
    61    61      0   0   1
    61    61      0   0  -1
    62    31      0   0   0
    62    61      0   0   0
    62    92      0   0   0
    62    93      0   0   0
    62     1      0   1   0
    62    32      0   1   0
    62    62      0   0   1
    62    62      0   0  -1
    63    32      0   0   0
    63    33      0   0   0
    63    64      0   0   0
    63    94      0   0   0
    63    93      0  -1   0
    63   124      0  -1   0
    63    63      0   0   1
    63    63      0   0  -1
    64    33      0   0   0
    64    34      0   0   0
    64    63      0   0   0
    64    65      0   0   0
    64    94      0   0   0
    64    95      0   0   0
    64    64      0   0   1
    64    64      0   0  -1
    65    34      0   0   0
    65    35      0   0   0
    65    64      0   0   0
    65    66      0   0   0
    65    95      0   0   0
    65    96      0   0   0
    65    65      0   0   1
    65    65      0   0  -1
    66    35      0   0   0
    66    36      0   0   0
    66    65      0   0   0
    66    67      0   0   0
    66    96      0   0   0
    66    97      0   0   0
    66    66      0   0   1
    66    66      0   0  -1
    67    36      0   0   0
    67    37      0   0   0
    67    66      0   0   0
    67    68      0   0   0
    67    97      0   0   0
    67    98      0   0   0
    67    67      0   0   1
    67    67      0   0  -1
    68    37      0   0   0
    68    38      0   0   0
    68    67      0   0   0
    68    69      0   0   0
    68    98      0   0   0
    68    99      0   0   0
    68    68      0   0   1
    68    68      0   0  -1
    69    38      0   0   0
    69    39      0   0   0
    69    68      0   0   0
    69    70      0   0   0
    69    99      0   0   0
    69   100      0   0   0
    69    69      0   0   1
    69    69      0   0  -1
    70    39      0   0   0
    70    40      0   0   0
    70    69      0   0   0
    70    71      0   0   0
    70   100      0   0   0
    70   101      0   0   0
    70    70      0   0   1
    70    70      0   0  -1
    71    40      0   0   0
    71    41      0   0   0
    71    70      0   0   0
    71    72      0   0   0
    71   101      0   0   0
    71   102      0   0   0
    71    71      0   0   1
    71    71      0   0  -1
    72    41      0   0   0
    72    42      0   0   0
    72    71      0   0   0
    72    73      0   0   0
    72   102      0   0   0
    72   103      0   0   0
    72    72      0   0   1
    72    72      0   0  -1
    73    42      0   0   0
    73    43      0   0   0
    73    72      0   0   0
    73    74      0   0   0
    73   103      0   0   0
    73   104      0   0   0
    73    73      0   0   1
    73    73      0   0  -1
    74    43      0   0   0
    74    44      0   0   0
    74    73      0   0   0
    74    75      0   0   0
    74   104      0   0   0
    74   105      0   0   0
    74    74      0   0   1
    74    74      0   0  -1
    75    44      0   0   0
    75    45      0   0   0
    75    74      0   0   0
    75    76      0   0   0
    75   105      0   0   0
    75   106      0   0   0
    75    75      0   0   1
    75    75      0   0  -1
    76    45      0   0   0
    76    46      0   0   0
    76    75      0   0   0
    76    77      0   0   0
    76   106      0   0   0
    76   107      0   0   0
    76    76      0   0   1
    76    76      0   0  -1
    77    46      0   0   0
    77    47      0   0   0
    77    76      0   0   0
    77    78      0   0   0
    77   107      0   0   0
    77   108      0   0   0
    77    77      0   0   1
    77    77      0   0  -1
    78    47      0   0   0
    78    48      0   0   0
    78    77      0   0   0
    78    79      0   0   0
    78   108      0   0   0
    78   109      0   0   0
    78    78      0   0   1
    78    78      0   0  -1
    79    48      0   0   0
    79    49      0   0   0
    79    78      0   0   0
    79    80      0   0   0
    79   109      0   0   0
    79   110      0   0   0
    79    79      0   0   1
    79    79      0   0  -1
    80    49      0   0   0
    80    50      0   0   0
    80    79      0   0   0
    80    81      0   0   0
    80   110      0   0   0
    80   111      0   0   0
    80    80      0   0   1
    80    80      0   0  -1
    81    50      0   0   0
    81    51      0   0   0
    81    80      0   0   0
    81    82      0   0   0
    81   111      0   0   0
    81   112      0   0   0
    81    81      0   0   1
    81    81      0   0  -1
    82    51      0   0   0
    82    52      0   0   0
    82    81      0   0   0
    82    83      0   0   0
    82   112      0   0   0
    82   113      0   0   0
    82    82      0   0   1
    82    82      0   0  -1
    83    52      0   0   0
    83    53      0   0   0
    83    82      0   0   0
    83    84      0   0   0
    83   113      0   0   0
    83   114      0   0   0
    83    83      0   0   1
    83    83      0   0  -1
    84    53      0   0   0
    84    54      0   0   0
    84    83      0   0   0
    84    85      0   0   0
    84   114      0   0   0
    84   115      0   0   0
    84    84      0   0   1
    84    84      0   0  -1
    85    54      0   0   0
    85    55      0   0   0
    85    84      0   0   0
    85    86      0   0   0
    85   115      0   0   0
    85   116      0   0   0
    85    85      0   0   1
    85    85      0   0  -1
    86    55      0   0   0
    86    56      0   0   0
    86    85      0   0   0
    86    87      0   0   0
    86   116      0   0   0
    86   117      0   0   0
    86    86      0   0   1
    86    86      0   0  -1
    87    56      0   0   0
    87    57      0   0   0
    87    86      0   0   0
    87    88      0   0   0
    87   117      0   0   0
    87   118      0   0   0
    87    87      0   0   1
    87    87      0   0  -1
    88    57      0   0   0
    88    58      0   0   0
    88    87      0   0   0
    88    89      0   0   0
    88   118      0   0   0
    88   119      0   0   0
    88    88      0   0   1
    88    88      0   0  -1
    89    58      0   0   0
    89    59      0   0   0
    89    88      0   0   0
    89    90      0   0   0
    89   119      0   0   0
    89   120      0   0   0
    89    89      0   0   1
    89    89      0   0  -1
    90    59      0   0   0
    90    60      0   0   0
    90    89      0   0   0
    90    91      0   0   0
    90   120      0   0   0
    90   121      0   0   0
    90    90      0   0   1
    90    90      0   0  -1
    91    60      0   0   0
    91    61      0   0   0
    91    90      0   0   0
    91    92      0   0   0
    91   121      0   0   0
    91   122      0   0   0
    91    91      0   0   1
    91    91      0   0  -1
    92    61      0   0   0
    92    62      0   0   0
    92    91      0   0   0
    92    93      0   0   0
    92   122      0   0   0
    92   123      0   0   0
    92    92      0   0   1
    92    92      0   0  -1
    93    62      0   0   0
    93    92      0   0   0
    93   123      0   0   0
    93   124      0   0   0
    93    32      0   1   0
    93    63      0   1   0
    93    93      0   0   1
    93    93      0   0  -1
    94    63      0   0   0
    94    64      0   0   0
    94    95      0   0   0
    94   125      0   0   0
    94   124      0  -1   0
    94   155      0  -1   0
    94    94      0   0   1
    94    94      0   0  -1
    95    64      0   0   0
    95    65      0   0   0
    95    94      0   0   0
    95    96      0   0   0
    95   125      0   0   0
    95   126      0   0   0
    95    95      0   0   1
    95    95      0   0  -1
    96    65      0   0   0
    96    66      0   0   0
    96    95      0   0   0
    96    97      0   0   0
    96   126      0   0   0
    96   127      0   0   0
    96    96      0   0   1
    96    96      0   0  -1
    97    66      0   0   0
    97    67      0   0   0
    97    96      0   0   0
    97    98      0   0   0
    97   127      0   0   0
    97   128      0   0   0
    97    97      0   0   1
    97    97      0   0  -1
    98    67      0   0   0
    98    68      0   0   0
    98    97      0   0   0
    98    99      0   0   0
    98   128      0   0   0
    98   129      0   0   0
    98    98      0   0   1
    98    98      0   0  -1
    99    68      0   0   0
    99    69      0   0   0
    99    98      0   0   0
    99   100      0   0   0
    99   129      0   0   0
    99   130      0   0   0
    99    99      0   0   1
    99    99      0   0  -1
   100    69      0   0   0
   100    70      0   0   0
   100    99      0   0   0
   100   101      0   0   0
   100   130      0   0   0
   100   131      0   0   0
   100   100      0   0   1
   100   100      0   0  -1
   101    70      0   0   0
   101    71      0   0   0
   101   100      0   0   0
   101   102      0   0   0
   101   131      0   0   0
   101   132      0   0   0
   101   101      0   0   1
   101   101      0   0  -1
   102    71      0   0   0
   102    72      0   0   0
   102   101      0   0   0
   102   103      0   0   0
   102   132      0   0   0
   102   133      0   0   0
   102   102      0   0   1
   102   102      0   0  -1
   103    72      0   0   0
   103    73      0   0   0
   103   102      0   0   0
   103   104      0   0   0
   103   133      0   0   0
   103   134      0   0   0
   103   103      0   0   1
   103   103      0   0  -1
   104    73      0   0   0
   104    74      0   0   0
   104   103      0   0   0
   104   105      0   0   0
   104   134      0   0   0
   104   135      0   0   0
   104   104      0   0   1
   104   104      0   0  -1
   105    74      0   0   0
   105    75      0   0   0
   105   104      0   0   0
   105   106      0   0   0
   105   135      0   0   0
   105   136      0   0   0
   105   105      0   0   1
   105   105      0   0  -1
   106    75      0   0   0
   106    76      0   0   0
   106   105      0   0   0
   106   107      0   0   0
   106   136      0   0   0
   106   137      0   0   0
   106   106      0   0   1
   106   106      0   0  -1
   107    76      0   0   0
   107    77      0   0   0
   107   106      0   0   0
   107   108      0   0   0
   107   137      0   0   0
   107   138      0   0   0
   107   107      0   0   1
   107   107      0   0  -1
   108    77      0   0   0
   108    78      0   0   0
   108   107      0   0   0
   108   109      0   0   0
   108   138      0   0   0
   108   139      0   0   0
   108   108      0   0   1
   108   108      0   0  -1
   109    78      0   0   0
   109    79      0   0   0
   109   108      0   0   0
   109   110      0   0   0
   109   139      0   0   0
   109   140      0   0   0
   109   109      0   0   1
   109   109      0   0  -1
   110    79      0   0   0
   110    80      0   0   0
   110   109      0   0   0
   110   111      0   0   0
   110   140      0   0   0
   110   141      0   0   0
   110   110      0   0   1
   110   110      0   0  -1
   111    80      0   0   0
   111    81      0   0   0
   111   110      0   0   0
   111   112      0   0   0
   111   141      0   0   0
   111   142      0   0   0
   111   111      0   0   1
   111   111      0   0  -1
   112    81      0   0   0
   112    82      0   0   0
   112   111      0   0   0
   112   113      0   0   0
   112   142      0   0   0
   112   143      0   0   0
   112   112      0   0   1
   112   112      0   0  -1
   113    82      0   0   0
   113    83      0   0   0
   113   112      0   0   0
   113   114      0   0   0
   113   143      0   0   0
   113   144      0   0   0
   113   113      0   0   1
   113   113      0   0  -1
   114    83      0   0   0
   114    84      0   0   0
   114   113      0   0   0
   114   115      0   0   0
   114   144      0   0   0
   114   145      0   0   0
   114   114      0   0   1
   114   114      0   0  -1
   115    84      0   0   0
   115    85      0   0   0
   115   114      0   0   0
   115   116      0   0   0
   115   145      0   0   0
   115   146      0   0   0
   115   115      0   0   1
   115   115      0   0  -1
   116    85      0   0   0
   116    86      0   0   0
   116   115      0   0   0
   116   117      0   0   0
   116   146      0   0   0
   116   147      0   0   0
   116   116      0   0   1
   116   116      0   0  -1
   117    86      0   0   0
   117    87      0   0   0
   117   116      0   0   0
   117   118      0   0   0
   117   147      0   0   0
   117   148      0   0   0
   117   117      0   0   1
   117   117      0   0  -1
   118    87      0   0   0
   118    88      0   0   0
   118   117      0   0   0
   118   119      0   0   0
   118   148      0   0   0
   118   149      0   0   0
   118   118      0   0   1
   118   118      0   0  -1
   119    88      0   0   0
   119    89      0   0   0
   119   118      0   0   0
   119   120      0   0   0
   119   149      0   0   0
   119   150      0   0   0
   119   119      0   0   1
   119   119      0   0  -1
   120    89      0   0   0
   120    90      0   0   0
   120   119      0   0   0
   120   121      0   0   0
   120   150      0   0   0
   120   151      0   0   0
   120   120      0   0   1
   120   120      0   0  -1
   121    90      0   0   0
   121    91      0   0   0
   121   120      0   0   0
   121   122      0   0   0
   121   151      0   0   0
   121   152      0   0   0
   121   121      0   0   1
   121   121      0   0  -1
   122    91      0   0   0
   122    92      0   0   0
   122   121      0   0   0
   122   123      0   0   0
   122   152      0   0   0
   122   153      0   0   0
   122   122      0   0   1
   122   122      0   0  -1
   123    92      0   0   0
   123    93      0   0   0
   123   122      0   0   0
   123   124      0   0   0
   123   153      0   0   0
   123   154      0   0   0
   123   123      0   0   1
   123   123      0   0  -1
   124    93      0   0   0
   124   123      0   0   0
   124   154      0   0   0
   124   155      0   0   0
   124    63      0   1   0
   124    94      0   1   0
   124   124      0   0   1
   124   124      0   0  -1
   125    94      0   0   0
   125    95      0   0   0
   125   126      0   0   0
   125   156      0   0   0
   125   155      0  -1   0
   125   186      0  -1   0
   125   125      0   0   1
   125   125      0   0  -1
   126    95      0   0   0
   126    96      0   0   0
   126   125      0   0   0
   126   127      0   0   0
   126   156      0   0   0
   126   157      0   0   0
   126   126      0   0   1
   126   126      0   0  -1
   127    96      0   0   0
   127    97      0   0   0
   127   126      0   0   0
   127   128      0   0   0
   127   157      0   0   0
   127   158      0   0   0
   127   127      0   0   1
   127   127      0   0  -1
   128    97      0   0   0
   128    98      0   0   0
   128   127      0   0   0
   128   129      0   0   0
   128   158      0   0   0
   128   159      0   0   0
   128   128      0   0   1
   128   128      0   0  -1
   129    98      0   0   0
   129    99      0   0   0
   129   128      0   0   0
   129   130      0   0   0
   129   159      0   0   0
   129   160      0   0   0
   129   129      0   0   1
   129   129      0   0  -1
   130    99      0   0   0
   130   100      0   0   0
   130   129      0   0   0
   130   131      0   0   0
   130   160      0   0   0
   130   161      0   0   0
   130   130      0   0   1
   130   130      0   0  -1
   131   100      0   0   0
   131   101      0   0   0
   131   130      0   0   0
   131   132      0   0   0
   131   161      0   0   0
   131   162      0   0   0
   131   131      0   0   1
   131   131      0   0  -1
   132   101      0   0   0
   132   102      0   0   0
   132   131      0   0   0
   132   133      0   0   0
   132   162      0   0   0
   132   163      0   0   0
   132   132      0   0   1
   132   132      0   0  -1
   133   102      0   0   0
   133   103      0   0   0
   133   132      0   0   0
   133   134      0   0   0
   133   163      0   0   0
   133   164      0   0   0
   133   133      0   0   1
   133   133      0   0  -1
   134   103      0   0   0
   134   104      0   0   0
   134   133      0   0   0
   134   135      0   0   0
   134   164      0   0   0
   134   165      0   0   0
   134   134      0   0   1
   134   134      0   0  -1
   135   104      0   0   0
   135   105      0   0   0
   135   134      0   0   0
   135   136      0   0   0
   135   165      0   0   0
   135   166      0   0   0
   135   135      0   0   1
   135   135      0   0  -1
   136   105      0   0   0
   136   106      0   0   0
   136   135      0   0   0
   136   137      0   0   0
   136   166      0   0   0
   136   167      0   0   0
   136   136      0   0   1
   136   136      0   0  -1
   137   106      0   0   0
   137   107      0   0   0
   137   136      0   0   0
   137   138      0   0   0
   137   167      0   0   0
   137   168      0   0   0
   137   137      0   0   1
   137   137      0   0  -1
   138   107      0   0   0
   138   108      0   0   0
   138   137      0   0   0
   138   139      0   0   0
   138   168      0   0   0
   138   169      0   0   0
   138   138      0   0   1
   138   138      0   0  -1
   139   108      0   0   0
   139   109      0   0   0
   139   138      0   0   0
   139   140      0   0   0
   139   169      0   0   0
   139   170      0   0   0
   139   139      0   0   1
   139   139      0   0  -1
   140   109      0   0   0
   140   110      0   0   0
   140   139      0   0   0
   140   141      0   0   0
   140   170      0   0   0
   140   171      0   0   0
   140   140      0   0   1
   140   140      0   0  -1
   141   110      0   0   0
   141   111      0   0   0
   141   140      0   0   0
   141   142      0   0   0
   141   171      0   0   0
   141   172      0   0   0
   141   141      0   0   1
   141   141      0   0  -1
   142   111      0   0   0
   142   112      0   0   0
   142   141      0   0   0
   142   143      0   0   0
   142   172      0   0   0
   142   173      0   0   0
   142   142      0   0   1
   142   142      0   0  -1
   143   112      0   0   0
   143   113      0   0   0
   143   142      0   0   0
   143   144      0   0   0
   143   173      0   0   0
   143   174      0   0   0
   143   143      0   0   1
   143   143      0   0  -1
   144   113      0   0   0
   144   114      0   0   0
   144   143      0   0   0
   144   145      0   0   0
   144   174      0   0   0
   144   175      0   0   0
   144   144      0   0   1
   144   144      0   0  -1
   145   114      0   0   0
   145   115      0   0   0
   145   144      0   0   0
   145   146      0   0   0
   145   175      0   0   0
   145   176      0   0   0
   145   145      0   0   1
   145   145      0   0  -1
   146   115      0   0   0
   146   116      0   0   0
   146   145      0   0   0
   146   147      0   0   0
   146   176      0   0   0
   146   177      0   0   0
   146   146      0   0   1
   146   146      0   0  -1
   147   116      0   0   0
   147   117      0   0   0
   147   146      0   0   0
   147   148      0   0   0
   147   177      0   0   0
   147   178      0   0   0
   147   147      0   0   1
   147   147      0   0  -1
   148   117      0   0   0
   148   118      0   0   0
   148   147      0   0   0
   148   149      0   0   0
   148   178      0   0   0
   148   179      0   0   0
   148   148      0   0   1
   148   148      0   0  -1
   149   118      0   0   0
   149   119      0   0   0
   149   148      0   0   0
   149   150      0   0   0
   149   179      0   0   0
   149   180      0   0   0
   149   149      0   0   1
   149   149      0   0  -1
   150   119      0   0   0
   150   120      0   0   0
   150   149      0   0   0
   150   151      0   0   0
   150   180      0   0   0
   150   181      0   0   0
   150   150      0   0   1
   150   150      0   0  -1
   151   120      0   0   0
   151   121      0   0   0
   151   150      0   0   0
   151   152      0   0   0
   151   181      0   0   0
   151   182      0   0   0
   151   151      0   0   1
   151   151      0   0  -1
   152   121      0   0   0
   152   122      0   0   0
   152   151      0   0   0
   152   153      0   0   0
   152   182      0   0   0
   152   183      0   0   0
   152   152      0   0   1
   152   152      0   0  -1
   153   122      0   0   0
   153   123      0   0   0
   153   152      0   0   0
   153   154      0   0   0
   153   183      0   0   0
   153   184      0   0   0
   153   153      0   0   1
   153   153      0   0  -1
   154   123      0   0   0
   154   124      0   0   0
   154   153      0   0   0
   154   155      0   0   0
   154   184      0   0   0
   154   185      0   0   0
   154   154      0   0   1
   154   154      0   0  -1
   155   124      0   0   0
   155   154      0   0   0
   155   185      0   0   0
   155   186      0   0   0
   155    94      0   1   0
   155   125      0   1   0
   155   155      0   0   1
   155   155      0   0  -1
   156   125      0   0   0
   156   126      0   0   0
   156   157      0   0   0
   156   187      0   0   0
   156   186      0  -1   0
   156   217      0  -1   0
   156   156      0   0   1
   156   156      0   0  -1
   157   126      0   0   0
   157   127      0   0   0
   157   156      0   0   0
   157   158      0   0   0
   157   187      0   0   0
   157   188      0   0   0
   157   157      0   0   1
   157   157      0   0  -1
   158   127      0   0   0
   158   128      0   0   0
   158   157      0   0   0
   158   159      0   0   0
   158   188      0   0   0
   158   189      0   0   0
   158   158      0   0   1
   158   158      0   0  -1
   159   128      0   0   0
   159   129      0   0   0
   159   158      0   0   0
   159   160      0   0   0
   159   189      0   0   0
   159   190      0   0   0
   159   159      0   0   1
   159   159      0   0  -1
   160   129      0   0   0
   160   130      0   0   0
   160   159      0   0   0
   160   161      0   0   0
   160   190      0   0   0
   160   191      0   0   0
   160   160      0   0   1
   160   160      0   0  -1
   161   130      0   0   0
   161   131      0   0   0
   161   160      0   0   0
   161   162      0   0   0
   161   191      0   0   0
   161   192      0   0   0
   161   161      0   0   1
   161   161      0   0  -1
   162   131      0   0   0
   162   132      0   0   0
   162   161      0   0   0
   162   163      0   0   0
   162   192      0   0   0
   162   193      0   0   0
   162   162      0   0   1
   162   162      0   0  -1
   163   132      0   0   0
   163   133      0   0   0
   163   162      0   0   0
   163   164      0   0   0
   163   193      0   0   0
   163   194      0   0   0
   163   163      0   0   1
   163   163      0   0  -1
   164   133      0   0   0
   164   134      0   0   0
   164   163      0   0   0
   164   165      0   0   0
   164   194      0   0   0
   164   195      0   0   0
   164   164      0   0   1
   164   164      0   0  -1
   165   134      0   0   0
   165   135      0   0   0
   165   164      0   0   0
   165   166      0   0   0
   165   195      0   0   0
   165   196      0   0   0
   165   165      0   0   1
   165   165      0   0  -1
   166   135      0   0   0
   166   136      0   0   0
   166   165      0   0   0
   166   167      0   0   0
   166   196      0   0   0
   166   197      0   0   0
   166   166      0   0   1
   166   166      0   0  -1
   167   136      0   0   0
   167   137      0   0   0
[...]
   873   842      0   0   0
   873   843      0   0   0
   873   872      0   0   0
   873   874      0   0   0
   873   903      0   0   0
   873   904      0   0   0
   873   873      0   0   1
   873   873      0   0  -1
   874   843      0   0   0
   874   844      0   0   0
   874   873      0   0   0
   874   875      0   0   0
   874   904      0   0   0
   874   905      0   0   0
   874   874      0   0   1
   874   874      0   0  -1
   875   844      0   0   0
   875   845      0   0   0
   875   874      0   0   0
   875   876      0   0   0
   875   905      0   0   0
   875   906      0   0   0
   875   875      0   0   1
   875   875      0   0  -1
   876   845      0   0   0
   876   846      0   0   0
   876   875      0   0   0
   876   877      0   0   0
   876   906      0   0   0
   876   907      0   0   0
   876   876      0   0   1
   876   876      0   0  -1
   877   846      0   0   0
   877   847      0   0   0
   877   876      0   0   0
   877   878      0   0   0
   877   907      0   0   0
   877   908      0   0   0
   877   877      0   0   1
   877   877      0   0  -1
   878   847      0   0   0
   878   848      0   0   0
   878   877      0   0   0
   878   879      0   0   0
   878   908      0   0   0
   878   909      0   0   0
   878   878      0   0   1
   878   878      0   0  -1
   879   848      0   0   0
   879   849      0   0   0
   879   878      0   0   0
   879   880      0   0   0
   879   909      0   0   0
   879   910      0   0   0
   879   879      0   0   1
   879   879      0   0  -1
   880   849      0   0   0
   880   850      0   0   0
   880   879      0   0   0
   880   881      0   0   0
   880   910      0   0   0
   880   911      0   0   0
   880   880      0   0   1
   880   880      0   0  -1
   881   850      0   0   0
   881   851      0   0   0
   881   880      0   0   0
   881   882      0   0   0
   881   911      0   0   0
   881   912      0   0   0
   881   881      0   0   1
   881   881      0   0  -1
   882   851      0   0   0
   882   852      0   0   0
   882   881      0   0   0
   882   883      0   0   0
   882   912      0   0   0
   882   913      0   0   0
   882   882      0   0   1
   882   882      0   0  -1
   883   852      0   0   0
   883   853      0   0   0
   883   882      0   0   0
   883   884      0   0   0
   883   913      0   0   0
   883   914      0   0   0
   883   883      0   0   1
   883   883      0   0  -1
   884   853      0   0   0
   884   854      0   0   0
   884   883      0   0   0
   884   885      0   0   0
   884   914      0   0   0
   884   915      0   0   0
   884   884      0   0   1
   884   884      0   0  -1
   885   854      0   0   0
   885   855      0   0   0
   885   884      0   0   0
   885   886      0   0   0
   885   915      0   0   0
   885   916      0   0   0
   885   885      0   0   1
   885   885      0   0  -1
   886   855      0   0   0
   886   856      0   0   0
   886   885      0   0   0
   886   887      0   0   0
   886   916      0   0   0
   886   917      0   0   0
   886   886      0   0   1
   886   886      0   0  -1
   887   856      0   0   0
   887   857      0   0   0
   887   886      0   0   0
   887   888      0   0   0
   887   917      0   0   0
   887   918      0   0   0
   887   887      0   0   1
   887   887      0   0  -1
   888   857      0   0   0
   888   858      0   0   0
   888   887      0   0   0
   888   889      0   0   0
   888   918      0   0   0
   888   919      0   0   0
   888   888      0   0   1
   888   888      0   0  -1
   889   858      0   0   0
   889   859      0   0   0
   889   888      0   0   0
   889   890      0   0   0
   889   919      0   0   0
   889   920      0   0   0
   889   889      0   0   1
   889   889      0   0  -1
   890   859      0   0   0
   890   860      0   0   0
   890   889      0   0   0
   890   891      0   0   0
   890   920      0   0   0
   890   921      0   0   0
   890   890      0   0   1
   890   890      0   0  -1
   891   860      0   0   0
   891   861      0   0   0
   891   890      0   0   0
   891   892      0   0   0
   891   921      0   0   0
   891   922      0   0   0
   891   891      0   0   1
   891   891      0   0  -1
   892   861      0   0   0
   892   862      0   0   0
   892   891      0   0   0
   892   893      0   0   0
   892   922      0   0   0
   892   923      0   0   0
   892   892      0   0   1
   892   892      0   0  -1
   893   862      0   0   0
   893   863      0   0   0
   893   892      0   0   0
   893   894      0   0   0
   893   923      0   0   0
   893   924      0   0   0
   893   893      0   0   1
   893   893      0   0  -1
   894   863      0   0   0
   894   864      0   0   0
   894   893      0   0   0
   894   895      0   0   0
   894   924      0   0   0
   894   925      0   0   0
   894   894      0   0   1
   894   894      0   0  -1
   895   864      0   0   0
   895   865      0   0   0
   895   894      0   0   0
   895   896      0   0   0
   895   925      0   0   0
   895   926      0   0   0
   895   895      0   0   1
   895   895      0   0  -1
   896   865      0   0   0
   896   866      0   0   0
   896   895      0   0   0
   896   897      0   0   0
   896   926      0   0   0
   896   927      0   0   0
   896   896      0   0   1
   896   896      0   0  -1
   897   866      0   0   0
   897   867      0   0   0
   897   896      0   0   0
   897   898      0   0   0
   897   927      0   0   0
   897   928      0   0   0
   897   897      0   0   1
   897   897      0   0  -1
   898   867      0   0   0
   898   868      0   0   0
   898   897      0   0   0
   898   899      0   0   0
   898   928      0   0   0
   898   929      0   0   0
   898   898      0   0   1
   898   898      0   0  -1
   899   868      0   0   0
   899   898      0   0   0
   899   929      0   0   0
   899   930      0   0   0
   899   838      0   1   0
   899   869      0   1   0
   899   899      0   0   1
   899   899      0   0  -1
   900   869      0   0   0
   900   870      0   0   0
   900   901      0   0   0
   900   931      0   0   0
   900   930      0  -1   0
   900   961      0  -1   0
   900   900      0   0   1
   900   900      0   0  -1
   901   870      0   0   0
   901   871      0   0   0
   901   900      0   0   0
   901   902      0   0   0
   901   931      0   0   0
   901   932      0   0   0
   901   901      0   0   1
   901   901      0   0  -1
   902   871      0   0   0
   902   872      0   0   0
   902   901      0   0   0
   902   903      0   0   0
   902   932      0   0   0
   902   933      0   0   0
   902   902      0   0   1
   902   902      0   0  -1
   903   872      0   0   0
   903   873      0   0   0
   903   902      0   0   0
   903   904      0   0   0
   903   933      0   0   0
   903   934      0   0   0
   903   903      0   0   1
   903   903      0   0  -1
   904   873      0   0   0
   904   874      0   0   0
   904   903      0   0   0
   904   905      0   0   0
   904   934      0   0   0
   904   935      0   0   0
   904   904      0   0   1
   904   904      0   0  -1
   905   874      0   0   0
   905   875      0   0   0
   905   904      0   0   0
   905   906      0   0   0
   905   935      0   0   0
   905   936      0   0   0
   905   905      0   0   1
   905   905      0   0  -1
   906   875      0   0   0
   906   876      0   0   0
   906   905      0   0   0
   906   907      0   0   0
   906   936      0   0   0
   906   937      0   0   0
   906   906      0   0   1
   906   906      0   0  -1
   907   876      0   0   0
   907   877      0   0   0
   907   906      0   0   0
   907   908      0   0   0
   907   937      0   0   0
   907   938      0   0   0
   907   907      0   0   1
   907   907      0   0  -1
   908   877      0   0   0
   908   878      0   0   0
   908   907      0   0   0
   908   909      0   0   0
   908   938      0   0   0
   908   939      0   0   0
   908   908      0   0   1
   908   908      0   0  -1
   909   878      0   0   0
   909   879      0   0   0
   909   908      0   0   0
   909   910      0   0   0
   909   939      0   0   0
   909   940      0   0   0
   909   909      0   0   1
   909   909      0   0  -1
   910   879      0   0   0
   910   880      0   0   0
   910   909      0   0   0
   910   911      0   0   0
   910   940      0   0   0
   910   941      0   0   0
   910   910      0   0   1
   910   910      0   0  -1
   911   880      0   0   0
   911   881      0   0   0
   911   910      0   0   0
   911   912      0   0   0
   911   941      0   0   0
   911   942      0   0   0
   911   911      0   0   1
   911   911      0   0  -1
   912   881      0   0   0
   912   882      0   0   0
   912   911      0   0   0
   912   913      0   0   0
   912   942      0   0   0
   912   943      0   0   0
   912   912      0   0   1
   912   912      0   0  -1
   913   882      0   0   0
   913   883      0   0   0
   913   912      0   0   0
   913   914      0   0   0
   913   943      0   0   0
   913   944      0   0   0
   913   913      0   0   1
   913   913      0   0  -1
   914   883      0   0   0
   914   884      0   0   0
   914   913      0   0   0
   914   915      0   0   0
   914   944      0   0   0
   914   945      0   0   0
   914   914      0   0   1
   914   914      0   0  -1
   915   884      0   0   0
   915   885      0   0   0
   915   914      0   0   0
   915   916      0   0   0
   915   945      0   0   0
   915   946      0   0   0
   915   915      0   0   1
   915   915      0   0  -1
   916   885      0   0   0
   916   886      0   0   0
   916   915      0   0   0
   916   917      0   0   0
   916   946      0   0   0
   916   947      0   0   0
   916   916      0   0   1
   916   916      0   0  -1
   917   886      0   0   0
   917   887      0   0   0
   917   916      0   0   0
   917   918      0   0   0
   917   947      0   0   0
   917   948      0   0   0
   917   917      0   0   1
   917   917      0   0  -1
   918   887      0   0   0
   918   888      0   0   0
   918   917      0   0   0
   918   919      0   0   0
   918   948      0   0   0
   918   949      0   0   0
   918   918      0   0   1
   918   918      0   0  -1
   919   888      0   0   0
   919   889      0   0   0
   919   918      0   0   0
   919   920      0   0   0
   919   949      0   0   0
   919   950      0   0   0
   919   919      0   0   1
   919   919      0   0  -1
   920   889      0   0   0
   920   890      0   0   0
   920   919      0   0   0
   920   921      0   0   0
   920   950      0   0   0
   920   951      0   0   0
   920   920      0   0   1
   920   920      0   0  -1
   921   890      0   0   0
   921   891      0   0   0
   921   920      0   0   0
   921   922      0   0   0
   921   951      0   0   0
   921   952      0   0   0
   921   921      0   0   1
   921   921      0   0  -1
   922   891      0   0   0
   922   892      0   0   0
   922   921      0   0   0
   922   923      0   0   0
   922   952      0   0   0
   922   953      0   0   0
   922   922      0   0   1
   922   922      0   0  -1
   923   892      0   0   0
   923   893      0   0   0
   923   922      0   0   0
   923   924      0   0   0
   923   953      0   0   0
   923   954      0   0   0
   923   923      0   0   1
   923   923      0   0  -1
   924   893      0   0   0
   924   894      0   0   0
   924   923      0   0   0
   924   925      0   0   0
   924   954      0   0   0
   924   955      0   0   0
   924   924      0   0   1
   924   924      0   0  -1
   925   894      0   0   0
   925   895      0   0   0
   925   924      0   0   0
   925   926      0   0   0
   925   955      0   0   0
   925   956      0   0   0
   925   925      0   0   1
   925   925      0   0  -1
   926   895      0   0   0
   926   896      0   0   0
   926   925      0   0   0
   926   927      0   0   0
   926   956      0   0   0
   926   957      0   0   0
   926   926      0   0   1
   926   926      0   0  -1
   927   896      0   0   0
   927   897      0   0   0
   927   926      0   0   0
   927   928      0   0   0
   927   957      0   0   0
   927   958      0   0   0
   927   927      0   0   1
   927   927      0   0  -1
   928   897      0   0   0
   928   898      0   0   0
   928   927      0   0   0
   928   929      0   0   0
   928   958      0   0   0
   928   959      0   0   0
   928   928      0   0   1
   928   928      0   0  -1
   929   898      0   0   0
   929   899      0   0   0
   929   928      0   0   0
   929   930      0   0   0
   929   959      0   0   0
   929   960      0   0   0
   929   929      0   0   1
   929   929      0   0  -1
   930   899      0   0   0
   930   929      0   0   0
   930   960      0   0   0
   930   961      0   0   0
   930   869      0   1   0
   930   900      0   1   0
   930   930      0   0   1
   930   930      0   0  -1
   931   900      0   0   0
   931   901      0   0   0
   931   932      0   0   0
   931     1      1   0   0
   931    31      1  -1   0
   931   961      0  -1   0
   931   931      0   0   1
   931   931      0   0  -1
   932   901      0   0   0
   932   902      0   0   0
   932   931      0   0   0
   932   933      0   0   0
   932     1      1   0   0
   932     2      1   0   0
   932   932      0   0   1
   932   932      0   0  -1
   933   902      0   0   0
   933   903      0   0   0
   933   932      0   0   0
   933   934      0   0   0
   933     2      1   0   0
   933     3      1   0   0
   933   933      0   0   1
   933   933      0   0  -1
   934   903      0   0   0
   934   904      0   0   0
   934   933      0   0   0
   934   935      0   0   0
   934     3      1   0   0
   934     4      1   0   0
   934   934      0   0   1
   934   934      0   0  -1
   935   904      0   0   0
   935   905      0   0   0
   935   934      0   0   0
   935   936      0   0   0
   935     4      1   0   0
   935     5      1   0   0
   935   935      0   0   1
   935   935      0   0  -1
   936   905      0   0   0
   936   906      0   0   0
   936   935      0   0   0
   936   937      0   0   0
   936     5      1   0   0
   936     6      1   0   0
   936   936      0   0   1
   936   936      0   0  -1
   937   906      0   0   0
   937   907      0   0   0
   937   936      0   0   0
   937   938      0   0   0
   937     6      1   0   0
   937     7      1   0   0
   937   937      0   0   1
   937   937      0   0  -1
   938   907      0   0   0
   938   908      0   0   0
   938   937      0   0   0
   938   939      0   0   0
   938     7      1   0   0
   938     8      1   0   0
   938   938      0   0   1
   938   938      0   0  -1
   939   908      0   0   0
   939   909      0   0   0
   939   938      0   0   0
   939   940      0   0   0
   939     8      1   0   0
   939     9      1   0   0
   939   939      0   0   1
   939   939      0   0  -1
   940   909      0   0   0
   940   910      0   0   0
   940   939      0   0   0
   940   941      0   0   0
   940     9      1   0   0
   940    10      1   0   0
   940   940      0   0   1
   940   940      0   0  -1
   941   910      0   0   0
   941   911      0   0   0
   941   940      0   0   0
   941   942      0   0   0
   941    10      1   0   0
   941    11      1   0   0
   941   941      0   0   1
   941   941      0   0  -1
   942   911      0   0   0
   942   912      0   0   0
   942   941      0   0   0
   942   943      0   0   0
   942    11      1   0   0
   942    12      1   0   0
   942   942      0   0   1
   942   942      0   0  -1
   943   912      0   0   0
   943   913      0   0   0
   943   942      0   0   0
   943   944      0   0   0
   943    12      1   0   0
   943    13      1   0   0
   943   943      0   0   1
   943   943      0   0  -1
   944   913      0   0   0
   944   914      0   0   0
   944   943      0   0   0
   944   945      0   0   0
   944    13      1   0   0
   944    14      1   0   0
   944   944      0   0   1
   944   944      0   0  -1
   945   914      0   0   0
   945   915      0   0   0
   945   944      0   0   0
   945   946      0   0   0
   945    14      1   0   0
   945    15      1   0   0
   945   945      0   0   1
   945   945      0   0  -1
   946   915      0   0   0
   946   916      0   0   0
   946   945      0   0   0
   946   947      0   0   0
   946    15      1   0   0
   946    16      1   0   0
   946   946      0   0   1
   946   946      0   0  -1
   947   916      0   0   0
   947   917      0   0   0
   947   946      0   0   0
   947   948      0   0   0
   947    16      1   0   0
   947    17      1   0   0
   947   947      0   0   1
   947   947      0   0  -1
   948   917      0   0   0
   948   918      0   0   0
   948   947      0   0   0
   948   949      0   0   0
   948    17      1   0   0
   948    18      1   0   0
   948   948      0   0   1
   948   948      0   0  -1
   949   918      0   0   0
   949   919      0   0   0
   949   948      0   0   0
   949   950      0   0   0
   949    18      1   0   0
   949    19      1   0   0
   949   949      0   0   1
   949   949      0   0  -1
   950   919      0   0   0
   950   920      0   0   0
   950   949      0   0   0
   950   951      0   0   0
   950    19      1   0   0
   950    20      1   0   0
   950   950      0   0   1
   950   950      0   0  -1
   951   920      0   0   0
   951   921      0   0   0
   951   950      0   0   0
   951   952      0   0   0
   951    20      1   0   0
   951    21      1   0   0
   951   951      0   0   1
   951   951      0   0  -1
   952   921      0   0   0
   952   922      0   0   0
   952   951      0   0   0
   952   953      0   0   0
   952    21      1   0   0
   952    22      1   0   0
   952   952      0   0   1
   952   952      0   0  -1
   953   922      0   0   0
   953   923      0   0   0
   953   952      0   0   0
   953   954      0   0   0
   953    22      1   0   0
   953    23      1   0   0
   953   953      0   0   1
   953   953      0   0  -1
   954   923      0   0   0
   954   924      0   0   0
   954   953      0   0   0
   954   955      0   0   0
   954    23      1   0   0
   954    24      1   0   0
   954   954      0   0   1
   954   954      0   0  -1
   955   924      0   0   0
   955   925      0   0   0
   955   954      0   0   0
   955   956      0   0   0
   955    24      1   0   0
   955    25      1   0   0
   955   955      0   0   1
   955   955      0   0  -1
   956   925      0   0   0
   956   926      0   0   0
   956   955      0   0   0
   956   957      0   0   0
   956    25      1   0   0
   956    26      1   0   0
   956   956      0   0   1
   956   956      0   0  -1
   957   926      0   0   0
   957   927      0   0   0
   957   956      0   0   0
   957   958      0   0   0
   957    26      1   0   0
   957    27      1   0   0
   957   957      0   0   1
   957   957      0   0  -1
   958   927      0   0   0
   958   928      0   0   0
   958   957      0   0   0
   958   959      0   0   0
   958    27      1   0   0
   958    28      1   0   0
   958   958      0   0   1
   958   958      0   0  -1
   959   928      0   0   0
   959   929      0   0   0
   959   958      0   0   0
   959   960      0   0   0
   959    28      1   0   0
   959    29      1   0   0
   959   959      0   0   1
   959   959      0   0  -1
   960   929      0   0   0
   960   930      0   0   0
   960   959      0   0   0
   960   961      0   0   0
   960    29      1   0   0
   960    30      1   0   0
   960   960      0   0   1
   960   960      0   0  -1
   961   930      0   0   0
   961   960      0   0   0
   961    30      1   0   0
   961    31      1   0   0
   961   900      0   1   0
   961   931      0   1   0
   961   961      0   0   1
   961   961      0   0  -1
end nnkpts

begin exclude_bands
   0
end exclude_bands
