"""
=== Hamiltonian matrix elements in real-space ===
- n1 n2 n3 a b re(H_{ab}(R)) im(H_{ab}(R))
    - H_{ab}(R)      : <φ_{a}(0)|H|φ_{b}(R)>.
    - φ_{a}(R)       : orthogonalized wannier function.
    - R = (n1,n2,n3) : lattice points (crystal coordinate, nj: integer).
"""
# written on 12Aug2025 at 16:56:48  (created by pw2cw)
          16
           1
    1
    0    0    0    1    1   -8.59833873E-01   0.00000000E+00
    0    0    0    2    1    0.00000000E+00   0.00000000E+00
    0    0    0    3    1    0.00000000E+00   0.00000000E+00
    0    0    0    4    1    0.00000000E+00   0.00000000E+00
    0    0    0    5    1    0.00000000E+00   0.00000000E+00
    0    0    0    6    1    0.00000000E+00   0.00000000E+00
    0    0    0    7    1    0.00000000E+00   0.00000000E+00
    0    0    0    8    1    0.00000000E+00   0.00000000E+00
    0    0    0    9    1   -1.06096190E+00   0.00000000E+00
    0    0    0   10    1    0.00000000E+00   0.00000000E+00
    0    0    0   11    1   -1.06096190E+00   0.00000000E+00
    0    0    0   12    1    0.00000000E+00   0.00000000E+00
    0    0    0   13    1   -1.06096190E+00   0.00000000E+00
    0    0    0   14    1    0.00000000E+00   0.00000000E+00
    0    0    0   15    1   -1.06096190E+00   0.00000000E+00
    0    0    0   16    1    0.00000000E+00   0.00000000E+00
    0    0    0    1    2    0.00000000E+00   0.00000000E+00
    0    0    0    2    2   -8.59833873E-01   0.00000000E+00
    0    0    0    3    2    0.00000000E+00   0.00000000E+00
    0    0    0    4    2    0.00000000E+00   0.00000000E+00
    0    0    0    5    2    0.00000000E+00   0.00000000E+00
    0    0    0    6    2    0.00000000E+00   0.00000000E+00
    0    0    0    7    2    0.00000000E+00   0.00000000E+00
    0    0    0    8    2    0.00000000E+00   0.00000000E+00
    0    0    0    9    2    0.00000000E+00   0.00000000E+00
    0    0    0   10    2   -1.06096190E+00   0.00000000E+00
    0    0    0   11    2    0.00000000E+00   0.00000000E+00
    0    0    0   12    2   -1.06096190E+00   0.00000000E+00
    0    0    0   13    2    0.00000000E+00   0.00000000E+00
    0    0    0   14    2   -1.06096190E+00   0.00000000E+00
    0    0    0   15    2    0.00000000E+00   0.00000000E+00
    0    0    0   16    2   -1.06096190E+00   0.00000000E+00
    0    0    0    1    3    0.00000000E+00   0.00000000E+00
    0    0    0    2    3    0.00000000E+00   0.00000000E+00
    0    0    0    3    3    9.69304036E-01   0.00000000E+00
    0    0    0    4    3    0.00000000E+00   0.00000000E+00
    0    0    0    5    3    0.00000000E+00   1.46292792E-04
    0    0    0    6    3    0.00000000E+00   0.00000000E+00
    0    0    0    7    3    0.00000000E+00   0.00000000E+00
    0    0    0    8    3    1.46292792E-04   0.00000000E+00
    0    0    0    9    3    3.34896540E-02   5.28180839E-04
    0    0    0   10    3    5.28180839E-04   0.00000000E+00
    0    0    0   11    3   -3.34896540E-02  -5.28180839E-04
    0    0    0   12    3    5.28180839E-04   0.00000000E+00
    0    0    0   13    3    3.34896540E-02  -5.28180839E-04
    0    0    0   14    3   -5.28180839E-04   0.00000000E+00
    0    0    0   15    3   -3.34896540E-02   5.28180839E-04
    0    0    0   16    3   -5.28180839E-04   0.00000000E+00
    0    0    0    1    4    0.00000000E+00   0.00000000E+00
    0    0    0    2    4    0.00000000E+00   0.00000000E+00
    0    0    0    3    4    0.00000000E+00   0.00000000E+00
    0    0    0    4    4    9.69304036E-01   0.00000000E+00
    0    0    0    5    4    0.00000000E+00   0.00000000E+00
    0    0    0    6    4    0.00000000E+00  -1.46292792E-04
    0    0    0    7    4   -1.46292792E-04   0.00000000E+00
    0    0    0    8    4    0.00000000E+00   0.00000000E+00
    0    0    0    9    4   -5.28180839E-04   0.00000000E+00
    0    0    0   10    4    3.34896540E-02  -5.28180839E-04
    0    0    0   11    4   -5.28180839E-04   0.00000000E+00
    0    0    0   12    4   -3.34896540E-02   5.28180839E-04
    0    0    0   13    4    5.28180839E-04   0.00000000E+00
    0    0    0   14    4    3.34896540E-02   5.28180839E-04
    0    0    0   15    4    5.28180839E-04   0.00000000E+00
    0    0    0   16    4   -3.34896540E-02  -5.28180839E-04
    0    0    0    1    5    0.00000000E+00   0.00000000E+00
    0    0    0    2    5    0.00000000E+00   0.00000000E+00
    0    0    0    3    5    0.00000000E+00  -1.46292792E-04
    0    0    0    4    5    0.00000000E+00   0.00000000E+00
    0    0    0    5    5    9.69304036E-01   0.00000000E+00
    0    0    0    6    5    0.00000000E+00   0.00000000E+00
    0    0    0    7    5    0.00000000E+00   0.00000000E+00
    0    0    0    8    5    0.00000000E+00   1.46292792E-04
    0    0    0    9    5    3.34896540E-02  -5.28180839E-04
    0    0    0   10    5    0.00000000E+00   5.28180839E-04
    0    0    0   11    5   -3.34896540E-02   5.28180839E-04
    0    0    0   12    5    0.00000000E+00   5.28180839E-04
    0    0    0   13    5   -3.34896540E-02  -5.28180839E-04
    0    0    0   14    5    0.00000000E+00  -5.28180839E-04
    0    0    0   15    5    3.34896540E-02   5.28180839E-04
    0    0    0   16    5    0.00000000E+00  -5.28180839E-04
    0    0    0    1    6    0.00000000E+00   0.00000000E+00
    0    0    0    2    6    0.00000000E+00   0.00000000E+00
    0    0    0    3    6    0.00000000E+00   0.00000000E+00
    0    0    0    4    6    0.00000000E+00   1.46292792E-04
    0    0    0    5    6    0.00000000E+00   0.00000000E+00
    0    0    0    6    6    9.69304036E-01   0.00000000E+00
    0    0    0    7    6    0.00000000E+00   1.46292792E-04
    0    0    0    8    6    0.00000000E+00   0.00000000E+00
    0    0    0    9    6    0.00000000E+00   5.28180839E-04
    0    0    0   10    6    3.34896540E-02   5.28180839E-04
    0    0    0   11    6    0.00000000E+00   5.28180839E-04
    0    0    0   12    6   -3.34896540E-02  -5.28180839E-04
    0    0    0   13    6    0.00000000E+00  -5.28180839E-04
    0    0    0   14    6   -3.34896540E-02   5.28180839E-04
    0    0    0   15    6    0.00000000E+00  -5.28180839E-04
    0    0    0   16    6    3.34896540E-02  -5.28180839E-04
    0    0    0    1    7    0.00000000E+00   0.00000000E+00
    0    0    0    2    7    0.00000000E+00   0.00000000E+00
    0    0    0    3    7    0.00000000E+00   0.00000000E+00
    0    0    0    4    7   -1.46292792E-04   0.00000000E+00
    0    0    0    5    7    0.00000000E+00   0.00000000E+00
    0    0    0    6    7    0.00000000E+00  -1.46292792E-04
    0    0    0    7    7    9.69304036E-01   0.00000000E+00
    0    0    0    8    7    0.00000000E+00   0.00000000E+00
    0    0    0    9    7    3.34896540E-02   0.00000000E+00
    0    0    0   10    7   -5.28180839E-04  -5.28180839E-04
    0    0    0   11    7    3.34896540E-02   0.00000000E+00
    0    0    0   12    7    5.28180839E-04   5.28180839E-04
    0    0    0   13    7   -3.34896540E-02   0.00000000E+00
    0    0    0   14    7   -5.28180839E-04   5.28180839E-04
    0    0    0   15    7   -3.34896540E-02   0.00000000E+00
    0    0    0   16    7    5.28180839E-04  -5.28180839E-04
    0    0    0    1    8    0.00000000E+00   0.00000000E+00
    0    0    0    2    8    0.00000000E+00   0.00000000E+00
    0    0    0    3    8    1.46292792E-04   0.00000000E+00
    0    0    0    4    8    0.00000000E+00   0.00000000E+00
    0    0    0    5    8    0.00000000E+00  -1.46292792E-04
    0    0    0    6    8    0.00000000E+00   0.00000000E+00
    0    0    0    7    8    0.00000000E+00   0.00000000E+00
    0    0    0    8    8    9.69304036E-01   0.00000000E+00
    0    0    0    9    8    5.28180839E-04  -5.28180839E-04
    0    0    0   10    8    3.34896540E-02   0.00000000E+00
    0    0    0   11    8   -5.28180839E-04   5.28180839E-04
    0    0    0   12    8    3.34896540E-02   0.00000000E+00
    0    0    0   13    8    5.28180839E-04   5.28180839E-04
    0    0    0   14    8   -3.34896540E-02   0.00000000E+00
    0    0    0   15    8   -5.28180839E-04  -5.28180839E-04
    0    0    0   16    8   -3.34896540E-02   0.00000000E+00
    0    0    0    1    9   -1.06096190E+00   0.00000000E+00
    0    0    0    2    9    0.00000000E+00   0.00000000E+00
    0    0    0    3    9    3.34896540E-02  -5.28180839E-04
    0    0    0    4    9   -5.28180839E-04   0.00000000E+00
    0    0    0    5    9    3.34896540E-02   5.28180839E-04
    0    0    0    6    9    0.00000000E+00  -5.28180839E-04
    0    0    0    7    9    3.34896540E-02   0.00000000E+00
    0    0    0    8    9    5.28180839E-04   5.28180839E-04
    0    0    0    9    9   -1.12921200E+01   0.00000000E+00
    0    0    0   10    9    0.00000000E+00   0.00000000E+00
    0    0    0   11    9   -1.83730594E+00   0.00000000E+00
    0    0    0   12    9    7.78401831E-04   7.78401831E-04
    0    0    0   13    9   -1.83730594E+00  -7.78401831E-04
    0    0    0   14    9   -7.78401831E-04   0.00000000E+00
    0    0    0   15    9   -1.83730594E+00   7.78401831E-04
    0    0    0   16    9    0.00000000E+00  -7.78401831E-04
    0    0    0    1   10    0.00000000E+00   0.00000000E+00
    0    0    0    2   10   -1.06096190E+00   0.00000000E+00
    0    0    0    3   10    5.28180839E-04   0.00000000E+00
    0    0    0    4   10    3.34896540E-02   5.28180839E-04
    0    0    0    5   10    0.00000000E+00  -5.28180839E-04
    0    0    0    6   10    3.34896540E-02  -5.28180839E-04
    0    0    0    7   10   -5.28180839E-04   5.28180839E-04
    0    0    0    8   10    3.34896540E-02   0.00000000E+00
    0    0    0    9   10    0.00000000E+00   0.00000000E+00
    0    0    0   10   10   -1.12921200E+01   0.00000000E+00
    0    0    0   11   10   -7.78401831E-04   7.78401831E-04
    0    0    0   12   10   -1.83730594E+00   0.00000000E+00
    0    0    0   13   10    7.78401831E-04   0.00000000E+00
    0    0    0   14   10   -1.83730594E+00   7.78401831E-04
    0    0    0   15   10    0.00000000E+00  -7.78401831E-04
    0    0    0   16   10   -1.83730594E+00  -7.78401831E-04
    0    0    0    1   11   -1.06096190E+00   0.00000000E+00
    0    0    0    2   11    0.00000000E+00   0.00000000E+00
    0    0    0    3   11   -3.34896540E-02   5.28180839E-04
    0    0    0    4   11   -5.28180839E-04   0.00000000E+00
    0    0    0    5   11   -3.34896540E-02  -5.28180839E-04
    0    0    0    6   11    0.00000000E+00  -5.28180839E-04
    0    0    0    7   11    3.34896540E-02   0.00000000E+00
    0    0    0    8   11   -5.28180839E-04  -5.28180839E-04
    0    0    0    9   11   -1.83730594E+00   0.00000000E+00
    0    0    0   10   11   -7.78401831E-04  -7.78401831E-04
    0    0    0   11   11   -1.12921200E+01   0.00000000E+00
    0    0    0   12   11    0.00000000E+00   0.00000000E+00
    0    0    0   13   11   -1.83730594E+00   7.78401831E-04
    0    0    0   14   11    0.00000000E+00   7.78401831E-04
    0    0    0   15   11   -1.83730594E+00  -7.78401831E-04
    0    0    0   16   11    7.78401831E-04   0.00000000E+00
    0    0    0    1   12    0.00000000E+00   0.00000000E+00
    0    0    0    2   12   -1.06096190E+00   0.00000000E+00
    0    0    0    3   12    5.28180839E-04   0.00000000E+00
    0    0    0    4   12   -3.34896540E-02  -5.28180839E-04
    0    0    0    5   12    0.00000000E+00  -5.28180839E-04
    0    0    0    6   12   -3.34896540E-02   5.28180839E-04
    0    0    0    7   12    5.28180839E-04  -5.28180839E-04
    0    0    0    8   12    3.34896540E-02   0.00000000E+00
    0    0    0    9   12    7.78401831E-04  -7.78401831E-04
    0    0    0   10   12   -1.83730594E+00   0.00000000E+00
    0    0    0   11   12    0.00000000E+00   0.00000000E+00
    0    0    0   12   12   -1.12921200E+01   0.00000000E+00
    0    0    0   13   12    0.00000000E+00   7.78401831E-04
    0    0    0   14   12   -1.83730594E+00  -7.78401831E-04
    0    0    0   15   12   -7.78401831E-04   0.00000000E+00
    0    0    0   16   12   -1.83730594E+00   7.78401831E-04
    0    0    0    1   13   -1.06096190E+00   0.00000000E+00
    0    0    0    2   13    0.00000000E+00   0.00000000E+00
    0    0    0    3   13    3.34896540E-02   5.28180839E-04
    0    0    0    4   13    5.28180839E-04   0.00000000E+00
    0    0    0    5   13   -3.34896540E-02   5.28180839E-04
    0    0    0    6   13    0.00000000E+00   5.28180839E-04
    0    0    0    7   13   -3.34896540E-02   0.00000000E+00
    0    0    0    8   13    5.28180839E-04  -5.28180839E-04
    0    0    0    9   13   -1.83730594E+00   7.78401831E-04
    0    0    0   10   13    7.78401831E-04   0.00000000E+00
    0    0    0   11   13   -1.83730594E+00  -7.78401831E-04
    0    0    0   12   13    0.00000000E+00  -7.78401831E-04
    0    0    0   13   13   -1.12921200E+01   0.00000000E+00
    0    0    0   14   13    0.00000000E+00   0.00000000E+00
    0    0    0   15   13   -1.83730594E+00   0.00000000E+00
    0    0    0   16   13   -7.78401831E-04   7.78401831E-04
    0    0    0    1   14    0.00000000E+00   0.00000000E+00
    0    0    0    2   14   -1.06096190E+00   0.00000000E+00
    0    0    0    3   14   -5.28180839E-04   0.00000000E+00
    0    0    0    4   14    3.34896540E-02  -5.28180839E-04
    0    0    0    5   14    0.00000000E+00   5.28180839E-04
    0    0    0    6   14   -3.34896540E-02  -5.28180839E-04
    0    0    0    7   14   -5.28180839E-04  -5.28180839E-04
    0    0    0    8   14   -3.34896540E-02   0.00000000E+00
    0    0    0    9   14   -7.78401831E-04   0.00000000E+00
    0    0    0   10   14   -1.83730594E+00  -7.78401831E-04
    0    0    0   11   14    0.00000000E+00  -7.78401831E-04
    0    0    0   12   14   -1.83730594E+00   7.78401831E-04
    0    0    0   13   14    0.00000000E+00   0.00000000E+00
    0    0    0   14   14   -1.12921200E+01   0.00000000E+00
    0    0    0   15   14    7.78401831E-04   7.78401831E-04
    0    0    0   16   14   -1.83730594E+00   0.00000000E+00
    0    0    0    1   15   -1.06096190E+00   0.00000000E+00
    0    0    0    2   15    0.00000000E+00   0.00000000E+00
    0    0    0    3   15   -3.34896540E-02  -5.28180839E-04
    0    0    0    4   15    5.28180839E-04   0.00000000E+00
    0    0    0    5   15    3.34896540E-02  -5.28180839E-04
    0    0    0    6   15    0.00000000E+00   5.28180839E-04
    0    0    0    7   15   -3.34896540E-02   0.00000000E+00
    0    0    0    8   15   -5.28180839E-04   5.28180839E-04
    0    0    0    9   15   -1.83730594E+00  -7.78401831E-04
    0    0    0   10   15    0.00000000E+00   7.78401831E-04
    0    0    0   11   15   -1.83730594E+00   7.78401831E-04
    0    0    0   12   15   -7.78401831E-04   0.00000000E+00
    0    0    0   13   15   -1.83730594E+00   0.00000000E+00
    0    0    0   14   15    7.78401831E-04  -7.78401831E-04
    0    0    0   15   15   -1.12921200E+01   0.00000000E+00
    0    0    0   16   15    0.00000000E+00   0.00000000E+00
    0    0    0    1   16    0.00000000E+00   0.00000000E+00
    0    0    0    2   16   -1.06096190E+00   0.00000000E+00
    0    0    0    3   16   -5.28180839E-04   0.00000000E+00
    0    0    0    4   16   -3.34896540E-02   5.28180839E-04
    0    0    0    5   16    0.00000000E+00   5.28180839E-04
    0    0    0    6   16    3.34896540E-02   5.28180839E-04
    0    0    0    7   16    5.28180839E-04   5.28180839E-04
    0    0    0    8   16   -3.34896540E-02   0.00000000E+00
    0    0    0    9   16    0.00000000E+00   7.78401831E-04
    0    0    0   10   16   -1.83730594E+00   7.78401831E-04
    0    0    0   11   16    7.78401831E-04   0.00000000E+00
    0    0    0   12   16   -1.83730594E+00  -7.78401831E-04
    0    0    0   13   16   -7.78401831E-04  -7.78401831E-04
    0    0    0   14   16   -1.83730594E+00   0.00000000E+00
    0    0    0   15   16    0.00000000E+00   0.00000000E+00
    0    0    0   16   16   -1.12921200E+01   0.00000000E+00

