"""
=== Hamiltonian matrix elements in real-space ===
- n1 n2 n3 a b re(H_{ab}(R)) im(H_{ab}(R))
    - H_{ab}(R)      : <φ_{a}(0)|H|φ_{b}(R)>.
    - φ_{a}(R)       : orthogonalized wannier function.
    - R = (n1,n2,n3) : lattice points (crystal coordinate, nj: integer).
"""
# written on 12Aug2025 at 17:10:13  (created by pw2cw)
           2
         379
    2    1    2    2    1    1    1    1    2    2    1    1    1    1    1
    1    1    2    2    1    1    1    1    1    1    1    1    1    1    2
    2    1    1    1    1    1    1    1    1    1    1    1    1    1    2
    2    1    1    1    1    1    1    1    1    1    1    1    1    1    1
    1    1    2    1    1    1    1    1    1    1    1    1    1    1    1
    1    1    1    1    1    1    1    2    1    1    1    1    1    1    1
    1    1    1    1    1    1    1    1    1    1    1    2    1    1    1
    1    1    1    1    1    1    1    1    1    1    1    1    1    1    1
    1    2    1    1    1    1    1    1    1    1    1    1    1    1    1
    1    1    1    1    1    2    1    1    1    1    1    1    1    1    1
    1    1    1    1    1    1    1    1    1    1    2    1    1    1    1
    1    1    1    1    1    1    1    1    1    1    1    1    1    1    2
    1    1    1    1    1    1    1    1    1    1    1    1    1    1    1
    1    1    1    1    2    1    1    1    1    1    1    1    1    1    1
    1    1    1    1    1    1    1    1    2    1    1    1    1    1    1
    1    1    1    1    1    1    1    1    1    1    1    1    1    2    1
    1    1    1    1    1    1    1    1    1    1    1    1    1    1    1
    1    1    2    1    1    1    1    1    1    1    1    1    1    1    1
    1    1    1    1    1    1    1    2    1    1    1    1    1    1    1
    1    1    1    1    1    1    1    1    1    1    1    2    1    1    1
    1    1    1    1    1    1    1    1    1    1    1    1    1    1    1
    1    2    1    1    1    1    1    1    1    1    1    1    1    1    1
    1    1    1    2    2    1    1    1    1    1    1    1    1    1    1
    1    1    1    2    2    1    1    1    1    1    1    1    1    1    1
    2    2    1    1    1    1    1    1    1    2    2    1    1    1    1
    2    2    1    2
  -12   -7    0    1    1    0.00000000E+00   0.00000000E+00
  -12   -7    0    2    1    0.00000000E+00   0.00000000E+00
  -12   -7    0    1    2    0.00000000E+00   0.00000000E+00
  -12   -7    0    2    2    0.00000000E+00   0.00000000E+00
  -12   -6    0    1    1    0.00000000E+00   0.00000000E+00
  -12   -6    0    2    1    0.00000000E+00   0.00000000E+00
  -12   -6    0    1    2    0.00000000E+00   0.00000000E+00
  -12   -6    0    2    2    0.00000000E+00   0.00000000E+00
  -12   -5    0    1    1    0.00000000E+00   0.00000000E+00
  -12   -5    0    2    1    0.00000000E+00   0.00000000E+00
  -12   -5    0    1    2    0.00000000E+00   0.00000000E+00
  -12   -5    0    2    2    0.00000000E+00   0.00000000E+00
  -11   -8    0    1    1    0.00000000E+00   0.00000000E+00
  -11   -8    0    2    1    0.00000000E+00   0.00000000E+00
  -11   -8    0    1    2    0.00000000E+00   0.00000000E+00
  -11   -8    0    2    2    0.00000000E+00   0.00000000E+00
  -11   -7    0    1    1    0.00000000E+00   0.00000000E+00
  -11   -7    0    2    1    0.00000000E+00   0.00000000E+00
  -11   -7    0    1    2    0.00000000E+00   0.00000000E+00
  -11   -7    0    2    2    0.00000000E+00   0.00000000E+00
  -11   -6    0    1    1    0.00000000E+00   0.00000000E+00
  -11   -6    0    2    1    0.00000000E+00   0.00000000E+00
  -11   -6    0    1    2    0.00000000E+00   0.00000000E+00
  -11   -6    0    2    2    0.00000000E+00   0.00000000E+00
  -11   -5    0    1    1    0.00000000E+00   0.00000000E+00
  -11   -5    0    2    1    0.00000000E+00   0.00000000E+00
  -11   -5    0    1    2    0.00000000E+00   0.00000000E+00
  -11   -5    0    2    2    0.00000000E+00   0.00000000E+00
  -11   -4    0    1    1    0.00000000E+00   0.00000000E+00
  -11   -4    0    2    1    0.00000000E+00   0.00000000E+00
  -11   -4    0    1    2    0.00000000E+00   0.00000000E+00
  -11   -4    0    2    2    0.00000000E+00   0.00000000E+00
  -11   -3    0    1    1    0.00000000E+00   0.00000000E+00
  -11   -3    0    2    1    0.00000000E+00   0.00000000E+00
  -11   -3    0    1    2    0.00000000E+00   0.00000000E+00
  -11   -3    0    2    2    0.00000000E+00   0.00000000E+00
  -10   -9    0    1    1    0.00000000E+00   0.00000000E+00
  -10   -9    0    2    1    0.00000000E+00   0.00000000E+00
  -10   -9    0    1    2    0.00000000E+00   0.00000000E+00
  -10   -9    0    2    2    0.00000000E+00   0.00000000E+00
  -10   -8    0    1    1    0.00000000E+00   0.00000000E+00
  -10   -8    0    2    1    0.00000000E+00   0.00000000E+00
  -10   -8    0    1    2    0.00000000E+00   0.00000000E+00
  -10   -8    0    2    2    0.00000000E+00   0.00000000E+00
  -10   -7    0    1    1    0.00000000E+00   0.00000000E+00
  -10   -7    0    2    1    0.00000000E+00   0.00000000E+00
  -10   -7    0    1    2    0.00000000E+00   0.00000000E+00
  -10   -7    0    2    2    0.00000000E+00   0.00000000E+00
  -10   -6    0    1    1    0.00000000E+00   0.00000000E+00
  -10   -6    0    2    1    0.00000000E+00   0.00000000E+00
  -10   -6    0    1    2    0.00000000E+00   0.00000000E+00
  -10   -6    0    2    2    0.00000000E+00   0.00000000E+00
  -10   -5    0    1    1    0.00000000E+00   0.00000000E+00
  -10   -5    0    2    1    0.00000000E+00   0.00000000E+00
  -10   -5    0    1    2    0.00000000E+00   0.00000000E+00
  -10   -5    0    2    2    0.00000000E+00   0.00000000E+00
  -10   -4    0    1    1    0.00000000E+00   0.00000000E+00
  -10   -4    0    2    1    0.00000000E+00   0.00000000E+00
  -10   -4    0    1    2    0.00000000E+00   0.00000000E+00
  -10   -4    0    2    2    0.00000000E+00   0.00000000E+00
  -10   -3    0    1    1    0.00000000E+00   0.00000000E+00
  -10   -3    0    2    1    0.00000000E+00   0.00000000E+00
  -10   -3    0    1    2    0.00000000E+00   0.00000000E+00
  -10   -3    0    2    2    0.00000000E+00   0.00000000E+00
  -10   -2    0    1    1    0.00000000E+00   0.00000000E+00
  -10   -2    0    2    1    0.00000000E+00   0.00000000E+00
  -10   -2    0    1    2    0.00000000E+00   0.00000000E+00
  -10   -2    0    2    2    0.00000000E+00   0.00000000E+00
  -10   -1    0    1    1    0.00000000E+00   0.00000000E+00
  -10   -1    0    2    1    0.00000000E+00   0.00000000E+00
  -10   -1    0    1    2    0.00000000E+00   0.00000000E+00
  -10   -1    0    2    2    0.00000000E+00   0.00000000E+00
   -9  -10    0    1    1    0.00000000E+00   0.00000000E+00
   -9  -10    0    2    1    0.00000000E+00   0.00000000E+00
   -9  -10    0    1    2    0.00000000E+00   0.00000000E+00
   -9  -10    0    2    2    0.00000000E+00   0.00000000E+00
   -9   -9    0    1    1    0.00000000E+00   0.00000000E+00
   -9   -9    0    2    1    0.00000000E+00   0.00000000E+00
   -9   -9    0    1    2    0.00000000E+00   0.00000000E+00
   -9   -9    0    2    2    0.00000000E+00   0.00000000E+00
   -9   -8    0    1    1    0.00000000E+00   0.00000000E+00
   -9   -8    0    2    1    0.00000000E+00   0.00000000E+00
   -9   -8    0    1    2    0.00000000E+00   0.00000000E+00
   -9   -8    0    2    2    0.00000000E+00   0.00000000E+00
   -9   -7    0    1    1    0.00000000E+00   0.00000000E+00
   -9   -7    0    2    1    0.00000000E+00   0.00000000E+00
   -9   -7    0    1    2    0.00000000E+00   0.00000000E+00
   -9   -7    0    2    2    0.00000000E+00   0.00000000E+00
   -9   -6    0    1    1    0.00000000E+00   0.00000000E+00
   -9   -6    0    2    1    0.00000000E+00   0.00000000E+00
   -9   -6    0    1    2    0.00000000E+00   0.00000000E+00
   -9   -6    0    2    2    0.00000000E+00   0.00000000E+00
   -9   -5    0    1    1    0.00000000E+00   0.00000000E+00
   -9   -5    0    2    1    0.00000000E+00   0.00000000E+00
   -9   -5    0    1    2    0.00000000E+00   0.00000000E+00
   -9   -5    0    2    2    0.00000000E+00   0.00000000E+00
   -9   -4    0    1    1    0.00000000E+00   0.00000000E+00
   -9   -4    0    2    1    0.00000000E+00   0.00000000E+00
   -9   -4    0    1    2    0.00000000E+00   0.00000000E+00
   -9   -4    0    2    2    0.00000000E+00   0.00000000E+00
   -9   -3    0    1    1    0.00000000E+00   0.00000000E+00
   -9   -3    0    2    1    0.00000000E+00   0.00000000E+00
   -9   -3    0    1    2    0.00000000E+00   0.00000000E+00
   -9   -3    0    2    2    0.00000000E+00   0.00000000E+00
   -9   -2    0    1    1    0.00000000E+00   0.00000000E+00
   -9   -2    0    2    1    0.00000000E+00   0.00000000E+00
   -9   -2    0    1    2    0.00000000E+00   0.00000000E+00
   -9   -2    0    2    2    0.00000000E+00   0.00000000E+00
   -9   -1    0    1    1    0.00000000E+00   0.00000000E+00
   -9   -1    0    2    1    0.00000000E+00   0.00000000E+00
   -9   -1    0    1    2    0.00000000E+00   0.00000000E+00
   -9   -1    0    2    2    0.00000000E+00   0.00000000E+00
   -9    0    0    1    1    0.00000000E+00   0.00000000E+00
   -9    0    0    2    1    0.00000000E+00   0.00000000E+00
   -9    0    0    1    2    0.00000000E+00   0.00000000E+00
   -9    0    0    2    2    0.00000000E+00   0.00000000E+00
   -9    1    0    1    1    0.00000000E+00   0.00000000E+00
   -9    1    0    2    1    0.00000000E+00   0.00000000E+00
   -9    1    0    1    2    0.00000000E+00   0.00000000E+00
   -9    1    0    2    2    0.00000000E+00   0.00000000E+00
   -8  -11    0    1    1    0.00000000E+00   0.00000000E+00
   -8  -11    0    2    1    0.00000000E+00   0.00000000E+00
   -8  -11    0    1    2    0.00000000E+00   0.00000000E+00
   -8  -11    0    2    2    0.00000000E+00   0.00000000E+00
   -8  -10    0    1    1    0.00000000E+00   0.00000000E+00
   -8  -10    0    2    1    0.00000000E+00   0.00000000E+00
   -8  -10    0    1    2    0.00000000E+00   0.00000000E+00
   -8  -10    0    2    2    0.00000000E+00   0.00000000E+00
   -8   -9    0    1    1    0.00000000E+00   0.00000000E+00
   -8   -9    0    2    1    0.00000000E+00   0.00000000E+00
   -8   -9    0    1    2    0.00000000E+00   0.00000000E+00
   -8   -9    0    2    2    0.00000000E+00   0.00000000E+00
   -8   -8    0    1    1    0.00000000E+00   0.00000000E+00
   -8   -8    0    2    1    0.00000000E+00   0.00000000E+00
   -8   -8    0    1    2    0.00000000E+00   0.00000000E+00
   -8   -8    0    2    2    0.00000000E+00   0.00000000E+00
   -8   -7    0    1    1    0.00000000E+00   0.00000000E+00
   -8   -7    0    2    1    0.00000000E+00   0.00000000E+00
   -8   -7    0    1    2    0.00000000E+00   0.00000000E+00
   -8   -7    0    2    2    0.00000000E+00   0.00000000E+00
   -8   -6    0    1    1    0.00000000E+00   0.00000000E+00
   -8   -6    0    2    1    0.00000000E+00   0.00000000E+00
   -8   -6    0    1    2    0.00000000E+00   0.00000000E+00
   -8   -6    0    2    2    0.00000000E+00   0.00000000E+00
   -8   -5    0    1    1    0.00000000E+00   0.00000000E+00
   -8   -5    0    2    1    0.00000000E+00   0.00000000E+00
   -8   -5    0    1    2    0.00000000E+00   0.00000000E+00
   -8   -5    0    2    2    0.00000000E+00   0.00000000E+00
   -8   -4    0    1    1    0.00000000E+00   0.00000000E+00
   -8   -4    0    2    1    0.00000000E+00   0.00000000E+00
   -8   -4    0    1    2    0.00000000E+00   0.00000000E+00
   -8   -4    0    2    2    0.00000000E+00   0.00000000E+00
   -8   -3    0    1    1    0.00000000E+00   0.00000000E+00
   -8   -3    0    2    1    0.00000000E+00   0.00000000E+00
   -8   -3    0    1    2    0.00000000E+00   0.00000000E+00
   -8   -3    0    2    2    0.00000000E+00   0.00000000E+00
   -8   -2    0    1    1    0.00000000E+00   0.00000000E+00
   -8   -2    0    2    1    0.00000000E+00   0.00000000E+00
   -8   -2    0    1    2    0.00000000E+00   0.00000000E+00
   -8   -2    0    2    2    0.00000000E+00   0.00000000E+00
   -8   -1    0    1    1    0.00000000E+00   0.00000000E+00
   -8   -1    0    2    1    0.00000000E+00   0.00000000E+00
   -8   -1    0    1    2    0.00000000E+00   0.00000000E+00
   -8   -1    0    2    2    0.00000000E+00   0.00000000E+00
   -8    0    0    1    1    0.00000000E+00   0.00000000E+00
   -8    0    0    2    1    0.00000000E+00   0.00000000E+00
   -8    0    0    1    2    0.00000000E+00   0.00000000E+00
   -8    0    0    2    2    0.00000000E+00   0.00000000E+00
   -8    1    0    1    1    0.00000000E+00   0.00000000E+00
   -8    1    0    2    1    0.00000000E+00   0.00000000E+00
   -8    1    0    1    2    0.00000000E+00   0.00000000E+00
   -8    1    0    2    2    0.00000000E+00   0.00000000E+00
   -8    2    0    1    1    0.00000000E+00   0.00000000E+00
   -8    2    0    2    1    0.00000000E+00   0.00000000E+00
   -8    2    0    1    2    0.00000000E+00   0.00000000E+00
   -8    2    0    2    2    0.00000000E+00   0.00000000E+00
   -8    3    0    1    1    0.00000000E+00   0.00000000E+00
   -8    3    0    2    1    0.00000000E+00   0.00000000E+00
   -8    3    0    1    2    0.00000000E+00   0.00000000E+00
   -8    3    0    2    2    0.00000000E+00   0.00000000E+00
   -7  -12    0    1    1    0.00000000E+00   0.00000000E+00
   -7  -12    0    2    1    0.00000000E+00   0.00000000E+00
   -7  -12    0    1    2    0.00000000E+00   0.00000000E+00
   -7  -12    0    2    2    0.00000000E+00   0.00000000E+00
   -7  -11    0    1    1    0.00000000E+00   0.00000000E+00
   -7  -11    0    2    1    0.00000000E+00   0.00000000E+00
   -7  -11    0    1    2    0.00000000E+00   0.00000000E+00
   -7  -11    0    2    2    0.00000000E+00   0.00000000E+00
   -7  -10    0    1    1    0.00000000E+00   0.00000000E+00
   -7  -10    0    2    1    0.00000000E+00   0.00000000E+00
   -7  -10    0    1    2    0.00000000E+00   0.00000000E+00
   -7  -10    0    2    2    0.00000000E+00   0.00000000E+00
   -7   -9    0    1    1    0.00000000E+00   0.00000000E+00
   -7   -9    0    2    1    0.00000000E+00   0.00000000E+00
   -7   -9    0    1    2    0.00000000E+00   0.00000000E+00
   -7   -9    0    2    2    0.00000000E+00   0.00000000E+00
   -7   -8    0    1    1    0.00000000E+00   0.00000000E+00
   -7   -8    0    2    1    0.00000000E+00   0.00000000E+00
   -7   -8    0    1    2    0.00000000E+00   0.00000000E+00
   -7   -8    0    2    2    0.00000000E+00   0.00000000E+00
   -7   -7    0    1    1    0.00000000E+00   0.00000000E+00
   -7   -7    0    2    1    0.00000000E+00   0.00000000E+00
   -7   -7    0    1    2    0.00000000E+00   0.00000000E+00
   -7   -7    0    2    2    0.00000000E+00   0.00000000E+00
   -7   -6    0    1    1    0.00000000E+00   0.00000000E+00
   -7   -6    0    2    1    0.00000000E+00   0.00000000E+00
   -7   -6    0    1    2    0.00000000E+00   0.00000000E+00
   -7   -6    0    2    2    0.00000000E+00   0.00000000E+00
   -7   -5    0    1    1    0.00000000E+00   0.00000000E+00
   -7   -5    0    2    1    0.00000000E+00   0.00000000E+00
   -7   -5    0    1    2    0.00000000E+00   0.00000000E+00
   -7   -5    0    2    2    0.00000000E+00   0.00000000E+00
   -7   -4    0    1    1    0.00000000E+00   0.00000000E+00
   -7   -4    0    2    1    0.00000000E+00   0.00000000E+00
   -7   -4    0    1    2    0.00000000E+00   0.00000000E+00
   -7   -4    0    2    2    0.00000000E+00   0.00000000E+00
   -7   -3    0    1    1    0.00000000E+00   0.00000000E+00
   -7   -3    0    2    1    0.00000000E+00   0.00000000E+00
   -7   -3    0    1    2    0.00000000E+00   0.00000000E+00
   -7   -3    0    2    2    0.00000000E+00   0.00000000E+00
   -7   -2    0    1    1    0.00000000E+00   0.00000000E+00
   -7   -2    0    2    1    0.00000000E+00   0.00000000E+00
   -7   -2    0    1    2    0.00000000E+00   0.00000000E+00
   -7   -2    0    2    2    0.00000000E+00   0.00000000E+00
   -7   -1    0    1    1    0.00000000E+00   0.00000000E+00
   -7   -1    0    2    1    0.00000000E+00   0.00000000E+00
   -7   -1    0    1    2    0.00000000E+00   0.00000000E+00
   -7   -1    0    2    2    0.00000000E+00   0.00000000E+00
   -7    0    0    1    1    0.00000000E+00   0.00000000E+00
   -7    0    0    2    1    0.00000000E+00   0.00000000E+00
   -7    0    0    1    2    0.00000000E+00   0.00000000E+00
   -7    0    0    2    2    0.00000000E+00   0.00000000E+00
   -7    1    0    1    1    0.00000000E+00   0.00000000E+00
   -7    1    0    2    1    0.00000000E+00   0.00000000E+00
   -7    1    0    1    2    0.00000000E+00   0.00000000E+00
   -7    1    0    2    2    0.00000000E+00   0.00000000E+00
   -7    2    0    1    1    0.00000000E+00   0.00000000E+00
   -7    2    0    2    1    0.00000000E+00   0.00000000E+00
   -7    2    0    1    2    0.00000000E+00   0.00000000E+00
   -7    2    0    2    2    0.00000000E+00   0.00000000E+00
   -7    3    0    1    1    0.00000000E+00   0.00000000E+00
   -7    3    0    2    1    0.00000000E+00   0.00000000E+00
   -7    3    0    1    2    0.00000000E+00   0.00000000E+00
   -7    3    0    2    2    0.00000000E+00   0.00000000E+00
   -7    4    0    1    1    0.00000000E+00   0.00000000E+00
   -7    4    0    2    1    0.00000000E+00   0.00000000E+00
   -7    4    0    1    2    0.00000000E+00   0.00000000E+00
   -7    4    0    2    2    0.00000000E+00   0.00000000E+00
   -7    5    0    1    1    0.00000000E+00   0.00000000E+00
   -7    5    0    2    1    0.00000000E+00   0.00000000E+00
   -7    5    0    1    2    0.00000000E+00   0.00000000E+00
   -7    5    0    2    2    0.00000000E+00   0.00000000E+00
   -6  -12    0    1    1    0.00000000E+00   0.00000000E+00
   -6  -12    0    2    1    0.00000000E+00   0.00000000E+00
   -6  -12    0    1    2    0.00000000E+00   0.00000000E+00
   -6  -12    0    2    2    0.00000000E+00   0.00000000E+00
   -6  -11    0    1    1    0.00000000E+00   0.00000000E+00
   -6  -11    0    2    1    0.00000000E+00   0.00000000E+00
   -6  -11    0    1    2    0.00000000E+00   0.00000000E+00
   -6  -11    0    2    2    0.00000000E+00   0.00000000E+00
   -6  -10    0    1    1    0.00000000E+00   0.00000000E+00
   -6  -10    0    2    1    0.00000000E+00   0.00000000E+00
   -6  -10    0    1    2    0.00000000E+00   0.00000000E+00
   -6  -10    0    2    2    0.00000000E+00   0.00000000E+00
   -6   -9    0    1    1    0.00000000E+00   0.00000000E+00
   -6   -9    0    2    1    0.00000000E+00   0.00000000E+00
   -6   -9    0    1    2    0.00000000E+00   0.00000000E+00
   -6   -9    0    2    2    0.00000000E+00   0.00000000E+00
   -6   -8    0    1    1    0.00000000E+00   0.00000000E+00
   -6   -8    0    2    1    0.00000000E+00   0.00000000E+00
   -6   -8    0    1    2    0.00000000E+00   0.00000000E+00
   -6   -8    0    2    2    0.00000000E+00   0.00000000E+00
   -6   -7    0    1    1    0.00000000E+00   0.00000000E+00
   -6   -7    0    2    1    0.00000000E+00   0.00000000E+00
   -6   -7    0    1    2    0.00000000E+00   0.00000000E+00
   -6   -7    0    2    2    0.00000000E+00   0.00000000E+00
   -6   -6    0    1    1    0.00000000E+00   0.00000000E+00
   -6   -6    0    2    1    0.00000000E+00   0.00000000E+00
   -6   -6    0    1    2    0.00000000E+00   0.00000000E+00
   -6   -6    0    2    2    0.00000000E+00   0.00000000E+00
   -6   -5    0    1    1    0.00000000E+00   0.00000000E+00
   -6   -5    0    2    1    0.00000000E+00   0.00000000E+00
   -6   -5    0    1    2    0.00000000E+00   0.00000000E+00
   -6   -5    0    2    2    0.00000000E+00   0.00000000E+00
   -6   -4    0    1    1    0.00000000E+00   0.00000000E+00
   -6   -4    0    2    1    0.00000000E+00   0.00000000E+00
   -6   -4    0    1    2    0.00000000E+00   0.00000000E+00
   -6   -4    0    2    2    0.00000000E+00   0.00000000E+00
   -6   -3    0    1    1    0.00000000E+00   0.00000000E+00
   -6   -3    0    2    1    0.00000000E+00   0.00000000E+00
   -6   -3    0    1    2    0.00000000E+00   0.00000000E+00
   -6   -3    0    2    2    0.00000000E+00   0.00000000E+00
   -6   -2    0    1    1    0.00000000E+00   0.00000000E+00
   -6   -2    0    2    1    0.00000000E+00   0.00000000E+00
   -6   -2    0    1    2    0.00000000E+00   0.00000000E+00
   -6   -2    0    2    2    0.00000000E+00   0.00000000E+00
   -6   -1    0    1    1    0.00000000E+00   0.00000000E+00
   -6   -1    0    2    1    0.00000000E+00   0.00000000E+00
   -6   -1    0    1    2    0.00000000E+00   0.00000000E+00
   -6   -1    0    2    2    0.00000000E+00   0.00000000E+00
   -6    0    0    1    1    0.00000000E+00   0.00000000E+00
   -6    0    0    2    1    0.00000000E+00   0.00000000E+00
   -6    0    0    1    2    0.00000000E+00   0.00000000E+00
   -6    0    0    2    2    0.00000000E+00   0.00000000E+00
   -6    1    0    1    1    0.00000000E+00   0.00000000E+00
   -6    1    0    2    1    0.00000000E+00   0.00000000E+00
   -6    1    0    1    2    0.00000000E+00   0.00000000E+00
   -6    1    0    2    2    0.00000000E+00   0.00000000E+00
   -6    2    0    1    1    0.00000000E+00   0.00000000E+00
   -6    2    0    2    1    0.00000000E+00   0.00000000E+00
   -6    2    0    1    2    0.00000000E+00   0.00000000E+00
   -6    2    0    2    2    0.00000000E+00   0.00000000E+00
   -6    3    0    1    1    0.00000000E+00   0.00000000E+00
   -6    3    0    2    1    0.00000000E+00   0.00000000E+00
   -6    3    0    1    2    0.00000000E+00   0.00000000E+00
   -6    3    0    2    2    0.00000000E+00   0.00000000E+00
   -6    4    0    1    1    0.00000000E+00   0.00000000E+00
   -6    4    0    2    1    0.00000000E+00   0.00000000E+00
   -6    4    0    1    2    0.00000000E+00   0.00000000E+00
   -6    4    0    2    2    0.00000000E+00   0.00000000E+00
   -6    5    0    1    1    0.00000000E+00   0.00000000E+00
   -6    5    0    2    1    0.00000000E+00   0.00000000E+00
   -6    5    0    1    2    0.00000000E+00   0.00000000E+00
   -6    5    0    2    2    0.00000000E+00   0.00000000E+00
   -6    6    0    1    1    0.00000000E+00   0.00000000E+00
   -6    6    0    2    1    0.00000000E+00   0.00000000E+00
   -6    6    0    1    2    0.00000000E+00   0.00000000E+00
   -6    6    0    2    2    0.00000000E+00   0.00000000E+00
   -5  -12    0    1    1    0.00000000E+00   0.00000000E+00
   -5  -12    0    2    1    0.00000000E+00   0.00000000E+00
   -5  -12    0    1    2    0.00000000E+00   0.00000000E+00
   -5  -12    0    2    2    0.00000000E+00   0.00000000E+00
   -5  -11    0    1    1    0.00000000E+00   0.00000000E+00
   -5  -11    0    2    1    0.00000000E+00   0.00000000E+00
   -5  -11    0    1    2    0.00000000E+00   0.00000000E+00
   -5  -11    0    2    2    0.00000000E+00   0.00000000E+00
   -5  -10    0    1    1    0.00000000E+00   0.00000000E+00
   -5  -10    0    2    1    0.00000000E+00   0.00000000E+00
   -5  -10    0    1    2    0.00000000E+00   0.00000000E+00
   -5  -10    0    2    2    0.00000000E+00   0.00000000E+00
   -5   -9    0    1    1    0.00000000E+00   0.00000000E+00
   -5   -9    0    2    1    0.00000000E+00   0.00000000E+00
   -5   -9    0    1    2    0.00000000E+00   0.00000000E+00
   -5   -9    0    2    2    0.00000000E+00   0.00000000E+00
   -5   -8    0    1    1    0.00000000E+00   0.00000000E+00
   -5   -8    0    2    1    0.00000000E+00   0.00000000E+00
   -5   -8    0    1    2    0.00000000E+00   0.00000000E+00
   -5   -8    0    2    2    0.00000000E+00   0.00000000E+00
   -5   -7    0    1    1    0.00000000E+00   0.00000000E+00
   -5   -7    0    2    1    0.00000000E+00   0.00000000E+00
   -5   -7    0    1    2    0.00000000E+00   0.00000000E+00
   -5   -7    0    2    2    0.00000000E+00   0.00000000E+00
   -5   -6    0    1    1    0.00000000E+00   0.00000000E+00
   -5   -6    0    2    1    0.00000000E+00   0.00000000E+00
   -5   -6    0    1    2    0.00000000E+00   0.00000000E+00
   -5   -6    0    2    2    0.00000000E+00   0.00000000E+00
   -5   -5    0    1    1    0.00000000E+00   0.00000000E+00
   -5   -5    0    2    1    0.00000000E+00   0.00000000E+00
   -5   -5    0    1    2    0.00000000E+00   0.00000000E+00
   -5   -5    0    2    2    0.00000000E+00   0.00000000E+00
   -5   -4    0    1    1    0.00000000E+00   0.00000000E+00
   -5   -4    0    2    1    0.00000000E+00   0.00000000E+00
   -5   -4    0    1    2    0.00000000E+00   0.00000000E+00
   -5   -4    0    2    2    0.00000000E+00   0.00000000E+00
   -5   -3    0    1    1    0.00000000E+00   0.00000000E+00
   -5   -3    0    2    1    0.00000000E+00   0.00000000E+00
   -5   -3    0    1    2    0.00000000E+00   0.00000000E+00
   -5   -3    0    2    2    0.00000000E+00   0.00000000E+00
   -5   -2    0    1    1    0.00000000E+00   0.00000000E+00
   -5   -2    0    2    1    0.00000000E+00   0.00000000E+00
   -5   -2    0    1    2    0.00000000E+00   0.00000000E+00
   -5   -2    0    2    2    0.00000000E+00   0.00000000E+00
   -5   -1    0    1    1    0.00000000E+00   0.00000000E+00
   -5   -1    0    2    1    0.00000000E+00   0.00000000E+00
   -5   -1    0    1    2    0.00000000E+00   0.00000000E+00
   -5   -1    0    2    2    0.00000000E+00   0.00000000E+00
   -5    0    0    1    1    0.00000000E+00   0.00000000E+00
   -5    0    0    2    1    0.00000000E+00   0.00000000E+00
   -5    0    0    1    2    0.00000000E+00   0.00000000E+00
   -5    0    0    2    2    0.00000000E+00   0.00000000E+00
   -5    1    0    1    1    0.00000000E+00   0.00000000E+00
   -5    1    0    2    1    0.00000000E+00   0.00000000E+00
   -5    1    0    1    2    0.00000000E+00   0.00000000E+00
   -5    1    0    2    2    0.00000000E+00   0.00000000E+00
   -5    2    0    1    1    0.00000000E+00   0.00000000E+00
   -5    2    0    2    1    0.00000000E+00   0.00000000E+00
   -5    2    0    1    2    0.00000000E+00   0.00000000E+00
   -5    2    0    2    2    0.00000000E+00   0.00000000E+00
   -5    3    0    1    1    0.00000000E+00   0.00000000E+00
   -5    3    0    2    1    0.00000000E+00   0.00000000E+00
   -5    3    0    1    2    0.00000000E+00   0.00000000E+00
   -5    3    0    2    2    0.00000000E+00   0.00000000E+00
   -5    4    0    1    1    0.00000000E+00   0.00000000E+00
   -5    4    0    2    1    0.00000000E+00   0.00000000E+00
   -5    4    0    1    2    0.00000000E+00   0.00000000E+00
   -5    4    0    2    2    0.00000000E+00   0.00000000E+00
   -5    5    0    1    1    0.00000000E+00   0.00000000E+00
   -5    5    0    2    1    0.00000000E+00   0.00000000E+00
   -5    5    0    1    2    0.00000000E+00   0.00000000E+00
   -5    5    0    2    2    0.00000000E+00   0.00000000E+00
   -5    6    0    1    1    0.00000000E+00   0.00000000E+00
   -5    6    0    2    1    0.00000000E+00   0.00000000E+00
   -5    6    0    1    2    0.00000000E+00   0.00000000E+00
   -5    6    0    2    2    0.00000000E+00   0.00000000E+00
   -5    7    0    1    1    0.00000000E+00   0.00000000E+00
   -5    7    0    2    1    0.00000000E+00   0.00000000E+00
   -5    7    0    1    2    0.00000000E+00   0.00000000E+00
   -5    7    0    2    2    0.00000000E+00   0.00000000E+00
   -4  -11    0    1    1    0.00000000E+00   0.00000000E+00
   -4  -11    0    2    1    0.00000000E+00   0.00000000E+00
   -4  -11    0    1    2    0.00000000E+00   0.00000000E+00
   -4  -11    0    2    2    0.00000000E+00   0.00000000E+00
   -4  -10    0    1    1    0.00000000E+00   0.00000000E+00
   -4  -10    0    2    1    0.00000000E+00   0.00000000E+00
   -4  -10    0    1    2    0.00000000E+00   0.00000000E+00
   -4  -10    0    2    2    0.00000000E+00   0.00000000E+00
   -4   -9    0    1    1    0.00000000E+00   0.00000000E+00
   -4   -9    0    2    1    0.00000000E+00   0.00000000E+00
   -4   -9    0    1    2    0.00000000E+00   0.00000000E+00
   -4   -9    0    2    2    0.00000000E+00   0.00000000E+00
   -4   -8    0    1    1    0.00000000E+00   0.00000000E+00
   -4   -8    0    2    1    0.00000000E+00   0.00000000E+00
   -4   -8    0    1    2    0.00000000E+00   0.00000000E+00
   -4   -8    0    2    2    0.00000000E+00   0.00000000E+00
   -4   -7    0    1    1    0.00000000E+00   0.00000000E+00
   -4   -7    0    2    1    0.00000000E+00   0.00000000E+00
   -4   -7    0    1    2    0.00000000E+00   0.00000000E+00
   -4   -7    0    2    2    0.00000000E+00   0.00000000E+00
   -4   -6    0    1    1    0.00000000E+00   0.00000000E+00
   -4   -6    0    2    1    0.00000000E+00   0.00000000E+00
   -4   -6    0    1    2    0.00000000E+00   0.00000000E+00
   -4   -6    0    2    2    0.00000000E+00   0.00000000E+00
   -4   -5    0    1    1    0.00000000E+00   0.00000000E+00
   -4   -5    0    2    1    0.00000000E+00   0.00000000E+00
   -4   -5    0    1    2    0.00000000E+00   0.00000000E+00
   -4   -5    0    2    2    0.00000000E+00   0.00000000E+00
   -4   -4    0    1    1    0.00000000E+00   0.00000000E+00
   -4   -4    0    2    1    0.00000000E+00   0.00000000E+00
   -4   -4    0    1    2    0.00000000E+00   0.00000000E+00
   -4   -4    0    2    2    0.00000000E+00   0.00000000E+00
   -4   -3    0    1    1    0.00000000E+00   0.00000000E+00
   -4   -3    0    2    1    0.00000000E+00   0.00000000E+00
   -4   -3    0    1    2    0.00000000E+00   0.00000000E+00
   -4   -3    0    2    2    0.00000000E+00   0.00000000E+00
   -4   -2    0    1    1    0.00000000E+00   0.00000000E+00
   -4   -2    0    2    1    0.00000000E+00   0.00000000E+00
   -4   -2    0    1    2    0.00000000E+00   0.00000000E+00
   -4   -2    0    2    2    0.00000000E+00   0.00000000E+00
   -4   -1    0    1    1    0.00000000E+00   0.00000000E+00
   -4   -1    0    2    1    0.00000000E+00   0.00000000E+00
   -4   -1    0    1    2    0.00000000E+00   0.00000000E+00
   -4   -1    0    2    2    0.00000000E+00   0.00000000E+00
   -4    0    0    1    1    0.00000000E+00   0.00000000E+00
   -4    0    0    2    1    0.00000000E+00   0.00000000E+00
   -4    0    0    1    2    0.00000000E+00   0.00000000E+00
   -4    0    0    2    2    0.00000000E+00   0.00000000E+00
   -4    1    0    1    1    0.00000000E+00   0.00000000E+00
   -4    1    0    2    1    0.00000000E+00   0.00000000E+00
   -4    1    0    1    2    0.00000000E+00   0.00000000E+00
   -4    1    0    2    2    0.00000000E+00   0.00000000E+00
   -4    2    0    1    1    0.00000000E+00   0.00000000E+00
   -4    2    0    2    1    0.00000000E+00   0.00000000E+00
   -4    2    0    1    2    0.00000000E+00   0.00000000E+00
   -4    2    0    2    2    0.00000000E+00   0.00000000E+00
   -4    3    0    1    1    0.00000000E+00   0.00000000E+00
   -4    3    0    2    1    0.00000000E+00   0.00000000E+00
   -4    3    0    1    2    0.00000000E+00   0.00000000E+00
   -4    3    0    2    2    0.00000000E+00   0.00000000E+00
   -4    4    0    1    1    0.00000000E+00   0.00000000E+00
   -4    4    0    2    1    0.00000000E+00   0.00000000E+00
   -4    4    0    1    2    0.00000000E+00   0.00000000E+00
   -4    4    0    2    2    0.00000000E+00   0.00000000E+00
   -4    5    0    1    1    0.00000000E+00   0.00000000E+00
   -4    5    0    2    1    0.00000000E+00   0.00000000E+00
   -4    5    0    1    2    0.00000000E+00   0.00000000E+00
   -4    5    0    2    2    0.00000000E+00   0.00000000E+00
   -4    6    0    1    1    0.00000000E+00   0.00000000E+00
   -4    6    0    2    1    0.00000000E+00   0.00000000E+00
   -4    6    0    1    2    0.00000000E+00   0.00000000E+00
   -4    6    0    2    2    0.00000000E+00   0.00000000E+00
   -4    7    0    1    1    0.00000000E+00   0.00000000E+00
   -4    7    0    2    1    0.00000000E+00   0.00000000E+00
   -4    7    0    1    2    0.00000000E+00   0.00000000E+00
   -4    7    0    2    2    0.00000000E+00   0.00000000E+00
   -3  -11    0    1    1    0.00000000E+00   0.00000000E+00
   -3  -11    0    2    1    0.00000000E+00   0.00000000E+00
   -3  -11    0    1    2    0.00000000E+00   0.00000000E+00
   -3  -11    0    2    2    0.00000000E+00   0.00000000E+00
   -3  -10    0    1    1    0.00000000E+00   0.00000000E+00
   -3  -10    0    2    1    0.00000000E+00   0.00000000E+00
   -3  -10    0    1    2    0.00000000E+00   0.00000000E+00
   -3  -10    0    2    2    0.00000000E+00   0.00000000E+00
   -3   -9    0    1    1    0.00000000E+00   0.00000000E+00
   -3   -9    0    2    1    0.00000000E+00   0.00000000E+00
   -3   -9    0    1    2    0.00000000E+00   0.00000000E+00
   -3   -9    0    2    2    0.00000000E+00   0.00000000E+00
   -3   -8    0    1    1    0.00000000E+00   0.00000000E+00
   -3   -8    0    2    1    0.00000000E+00   0.00000000E+00
   -3   -8    0    1    2    0.00000000E+00   0.00000000E+00
   -3   -8    0    2    2    0.00000000E+00   0.00000000E+00
   -3   -7    0    1    1    0.00000000E+00   0.00000000E+00
   -3   -7    0    2    1    0.00000000E+00   0.00000000E+00
   -3   -7    0    1    2    0.00000000E+00   0.00000000E+00
   -3   -7    0    2    2    0.00000000E+00   0.00000000E+00
   -3   -6    0    1    1    0.00000000E+00   0.00000000E+00
   -3   -6    0    2    1    0.00000000E+00   0.00000000E+00
   -3   -6    0    1    2    0.00000000E+00   0.00000000E+00
   -3   -6    0    2    2    0.00000000E+00   0.00000000E+00
   -3   -5    0    1    1    0.00000000E+00   0.00000000E+00
   -3   -5    0    2    1    0.00000000E+00   0.00000000E+00
   -3   -5    0    1    2    0.00000000E+00   0.00000000E+00
   -3   -5    0    2    2    0.00000000E+00   0.00000000E+00
   -3   -4    0    1    1    0.00000000E+00   0.00000000E+00
   -3   -4    0    2    1    0.00000000E+00   0.00000000E+00
   -3   -4    0    1    2    0.00000000E+00   0.00000000E+00
   -3   -4    0    2    2    0.00000000E+00   0.00000000E+00
   -3   -3    0    1    1    0.00000000E+00   0.00000000E+00
   -3   -3    0    2    1    0.00000000E+00   0.00000000E+00
   -3   -3    0    1    2    0.00000000E+00   0.00000000E+00
   -3   -3    0    2    2    0.00000000E+00   0.00000000E+00
   -3   -2    0    1    1    0.00000000E+00   0.00000000E+00
   -3   -2    0    2    1    0.00000000E+00   0.00000000E+00
   -3   -2    0    1    2    0.00000000E+00   0.00000000E+00
   -3   -2    0    2    2    0.00000000E+00   0.00000000E+00
   -3   -1    0    1    1    0.00000000E+00   0.00000000E+00
   -3   -1    0    2    1    0.00000000E+00   0.00000000E+00
   -3   -1    0    1    2    0.00000000E+00   0.00000000E+00
   -3   -1    0    2    2    0.00000000E+00   0.00000000E+00
   -3    0    0    1    1    0.00000000E+00   0.00000000E+00
   -3    0    0    2    1    0.00000000E+00   0.00000000E+00
   -3    0    0    1    2    0.00000000E+00   0.00000000E+00
   -3    0    0    2    2    0.00000000E+00   0.00000000E+00
   -3    1    0    1    1    0.00000000E+00   0.00000000E+00
   -3    1    0    2    1    0.00000000E+00   0.00000000E+00
   -3    1    0    1    2    0.00000000E+00   0.00000000E+00
   -3    1    0    2    2    0.00000000E+00   0.00000000E+00
   -3    2    0    1    1    0.00000000E+00   0.00000000E+00
   -3    2    0    2    1    0.00000000E+00   0.00000000E+00
   -3    2    0    1    2    0.00000000E+00   0.00000000E+00
   -3    2    0    2    2    0.00000000E+00   0.00000000E+00
   -3    3    0    1    1    0.00000000E+00   0.00000000E+00
   -3    3    0    2    1    0.00000000E+00   0.00000000E+00
   -3    3    0    1    2    0.00000000E+00   0.00000000E+00
   -3    3    0    2    2    0.00000000E+00   0.00000000E+00
   -3    4    0    1    1    0.00000000E+00   0.00000000E+00
   -3    4    0    2    1    0.00000000E+00   0.00000000E+00
   -3    4    0    1    2    0.00000000E+00   0.00000000E+00
   -3    4    0    2    2    0.00000000E+00   0.00000000E+00
   -3    5    0    1    1    0.00000000E+00   0.00000000E+00
   -3    5    0    2    1    0.00000000E+00   0.00000000E+00
   -3    5    0    1    2    0.00000000E+00   0.00000000E+00
   -3    5    0    2    2    0.00000000E+00   0.00000000E+00
   -3    6    0    1    1    0.00000000E+00   0.00000000E+00
   -3    6    0    2    1    0.00000000E+00   0.00000000E+00
   -3    6    0    1    2    0.00000000E+00   0.00000000E+00
   -3    6    0    2    2    0.00000000E+00   0.00000000E+00
   -3    7    0    1    1    0.00000000E+00   0.00000000E+00
   -3    7    0    2    1    0.00000000E+00   0.00000000E+00
   -3    7    0    1    2    0.00000000E+00   0.00000000E+00
   -3    7    0    2    2    0.00000000E+00   0.00000000E+00
   -3    8    0    1    1    0.00000000E+00   0.00000000E+00
   -3    8    0    2    1    0.00000000E+00   0.00000000E+00
   -3    8    0    1    2    0.00000000E+00   0.00000000E+00
   -3    8    0    2    2    0.00000000E+00   0.00000000E+00
   -2  -10    0    1    1    0.00000000E+00   0.00000000E+00
   -2  -10    0    2    1    0.00000000E+00   0.00000000E+00
   -2  -10    0    1    2    0.00000000E+00   0.00000000E+00
   -2  -10    0    2    2    0.00000000E+00   0.00000000E+00
   -2   -9    0    1    1    0.00000000E+00   0.00000000E+00
   -2   -9    0    2    1    0.00000000E+00   0.00000000E+00
   -2   -9    0    1    2    0.00000000E+00   0.00000000E+00
   -2   -9    0    2    2    0.00000000E+00   0.00000000E+00
   -2   -8    0    1    1    0.00000000E+00   0.00000000E+00
   -2   -8    0    2    1    0.00000000E+00   0.00000000E+00
   -2   -8    0    1    2    0.00000000E+00   0.00000000E+00
   -2   -8    0    2    2    0.00000000E+00   0.00000000E+00
   -2   -7    0    1    1    0.00000000E+00   0.00000000E+00
   -2   -7    0    2    1    0.00000000E+00   0.00000000E+00
   -2   -7    0    1    2    0.00000000E+00   0.00000000E+00
   -2   -7    0    2    2    0.00000000E+00   0.00000000E+00
   -2   -6    0    1    1    0.00000000E+00   0.00000000E+00
   -2   -6    0    2    1    0.00000000E+00   0.00000000E+00
   -2   -6    0    1    2    0.00000000E+00   0.00000000E+00
   -2   -6    0    2    2    0.00000000E+00   0.00000000E+00
   -2   -5    0    1    1    0.00000000E+00   0.00000000E+00
   -2   -5    0    2    1    0.00000000E+00   0.00000000E+00
   -2   -5    0    1    2    0.00000000E+00   0.00000000E+00
   -2   -5    0    2    2    0.00000000E+00   0.00000000E+00
   -2   -4    0    1    1    0.00000000E+00   0.00000000E+00
   -2   -4    0    2    1    0.00000000E+00   0.00000000E+00
   -2   -4    0    1    2    0.00000000E+00   0.00000000E+00
   -2   -4    0    2    2    0.00000000E+00   0.00000000E+00
   -2   -3    0    1    1    0.00000000E+00   0.00000000E+00
   -2   -3    0    2    1    0.00000000E+00   0.00000000E+00
   -2   -3    0    1    2    0.00000000E+00   0.00000000E+00
   -2   -3    0    2    2    0.00000000E+00   0.00000000E+00
   -2   -2    0    1    1   -2.04045997E-02   0.00000000E+00
   -2   -2    0    2    1    0.00000000E+00   0.00000000E+00
   -2   -2    0    1    2    0.00000000E+00   0.00000000E+00
   -2   -2    0    2    2   -2.04045997E-02   0.00000000E+00
   -2   -1    0    1    1    5.67238858E-02   0.00000000E+00
   -2   -1    0    2    1    1.55206534E-02   0.00000000E+00
   -2   -1    0    1    2    0.00000000E+00   0.00000000E+00
   -2   -1    0    2    2    5.67238858E-02   0.00000000E+00
   -2    0    0    1    1   -2.04045997E-02   0.00000000E+00
   -2    0    0    2    1    1.55206534E-02   0.00000000E+00
   -2    0    0    1    2    0.00000000E+00   0.00000000E+00
   -2    0    0    2    2   -2.04045997E-02   0.00000000E+00
   -2    1    0    1    1    0.00000000E+00   0.00000000E+00
   -2    1    0    2    1    0.00000000E+00   0.00000000E+00
   -2    1    0    1    2    0.00000000E+00   0.00000000E+00
   -2    1    0    2    2    0.00000000E+00   0.00000000E+00
   -2    2    0    1    1    0.00000000E+00   0.00000000E+00
   -2    2    0    2    1    0.00000000E+00   0.00000000E+00
   -2    2    0    1    2    0.00000000E+00   0.00000000E+00
   -2    2    0    2    2    0.00000000E+00   0.00000000E+00
   -2    3    0    1    1    0.00000000E+00   0.00000000E+00
   -2    3    0    2    1    0.00000000E+00   0.00000000E+00
   -2    3    0    1    2    0.00000000E+00   0.00000000E+00
   -2    3    0    2    2    0.00000000E+00   0.00000000E+00
   -2    4    0    1    1    0.00000000E+00   0.00000000E+00
   -2    4    0    2    1    0.00000000E+00   0.00000000E+00
   -2    4    0    1    2    0.00000000E+00   0.00000000E+00
   -2    4    0    2    2    0.00000000E+00   0.00000000E+00
   -2    5    0    1    1    0.00000000E+00   0.00000000E+00
   -2    5    0    2    1    0.00000000E+00   0.00000000E+00
   -2    5    0    1    2    0.00000000E+00   0.00000000E+00
   -2    5    0    2    2    0.00000000E+00   0.00000000E+00
   -2    6    0    1    1    0.00000000E+00   0.00000000E+00
   -2    6    0    2    1    0.00000000E+00   0.00000000E+00
   -2    6    0    1    2    0.00000000E+00   0.00000000E+00
   -2    6    0    2    2    0.00000000E+00   0.00000000E+00
   -2    7    0    1    1    0.00000000E+00   0.00000000E+00
   -2    7    0    2    1    0.00000000E+00   0.00000000E+00
   -2    7    0    1    2    0.00000000E+00   0.00000000E+00
   -2    7    0    2    2    0.00000000E+00   0.00000000E+00
   -2    8    0    1    1    0.00000000E+00   0.00000000E+00
   -2    8    0    2    1    0.00000000E+00   0.00000000E+00
   -2    8    0    1    2    0.00000000E+00   0.00000000E+00
   -2    8    0    2    2    0.00000000E+00   0.00000000E+00
   -1  -10    0    1    1    0.00000000E+00   0.00000000E+00
   -1  -10    0    2    1    0.00000000E+00   0.00000000E+00
   -1  -10    0    1    2    0.00000000E+00   0.00000000E+00
   -1  -10    0    2    2    0.00000000E+00   0.00000000E+00
   -1   -9    0    1    1    0.00000000E+00   0.00000000E+00
   -1   -9    0    2    1    0.00000000E+00   0.00000000E+00
   -1   -9    0    1    2    0.00000000E+00   0.00000000E+00
   -1   -9    0    2    2    0.00000000E+00   0.00000000E+00
   -1   -8    0    1    1    0.00000000E+00   0.00000000E+00
   -1   -8    0    2    1    0.00000000E+00   0.00000000E+00
   -1   -8    0    1    2    0.00000000E+00   0.00000000E+00
   -1   -8    0    2    2    0.00000000E+00   0.00000000E+00
   -1   -7    0    1    1    0.00000000E+00   0.00000000E+00
   -1   -7    0    2    1    0.00000000E+00   0.00000000E+00
   -1   -7    0    1    2    0.00000000E+00   0.00000000E+00
   -1   -7    0    2    2    0.00000000E+00   0.00000000E+00
   -1   -6    0    1    1    0.00000000E+00   0.00000000E+00
   -1   -6    0    2    1    0.00000000E+00   0.00000000E+00
   -1   -6    0    1    2    0.00000000E+00   0.00000000E+00
   -1   -6    0    2    2    0.00000000E+00   0.00000000E+00
   -1   -5    0    1    1    0.00000000E+00   0.00000000E+00
   -1   -5    0    2    1    0.00000000E+00   0.00000000E+00
   -1   -5    0    1    2    0.00000000E+00   0.00000000E+00
   -1   -5    0    2    2    0.00000000E+00   0.00000000E+00
   -1   -4    0    1    1    0.00000000E+00   0.00000000E+00
   -1   -4    0    2    1    0.00000000E+00   0.00000000E+00
   -1   -4    0    1    2    0.00000000E+00   0.00000000E+00
   -1   -4    0    2    2    0.00000000E+00   0.00000000E+00
   -1   -3    0    1    1    0.00000000E+00   0.00000000E+00
   -1   -3    0    2    1    0.00000000E+00   0.00000000E+00
   -1   -3    0    1    2    0.00000000E+00   0.00000000E+00
   -1   -3    0    2    2    0.00000000E+00   0.00000000E+00
   -1   -2    0    1    1    5.67238858E-02   0.00000000E+00
   -1   -2    0    2    1    0.00000000E+00   0.00000000E+00
   -1   -2    0    1    2    1.55206534E-02   0.00000000E+00
   -1   -2    0    2    2    5.67238858E-02   0.00000000E+00
   -1   -1    0    1    1    2.35704719E-01   0.00000000E+00
   -1   -1    0    2    1   -2.84863896E-01   0.00000000E+00
   -1   -1    0    1    2   -2.84863896E-01   0.00000000E+00
   -1   -1    0    2    2    2.35704719E-01   0.00000000E+00
   -1    0    0    1    1    2.35704719E-01   0.00000000E+00
   -1    0    0    2    1   -3.00657492E+00   0.00000000E+00
   -1    0    0    1    2    1.55206534E-02   0.00000000E+00
   -1    0    0    2    2    2.35704719E-01   0.00000000E+00
   -1    1    0    1    1    5.67238858E-02   0.00000000E+00
   -1    1    0    2    1   -2.84863896E-01   0.00000000E+00
   -1    1    0    1    2    0.00000000E+00   0.00000000E+00
   -1    1    0    2    2    5.67238858E-02   0.00000000E+00
   -1    2    0    1    1    0.00000000E+00   0.00000000E+00
   -1    2    0    2    1    0.00000000E+00   0.00000000E+00
   -1    2    0    1    2    0.00000000E+00   0.00000000E+00
   -1    2    0    2    2    0.00000000E+00   0.00000000E+00
   -1    3    0    1    1    0.00000000E+00   0.00000000E+00
   -1    3    0    2    1    0.00000000E+00   0.00000000E+00
   -1    3    0    1    2    0.00000000E+00   0.00000000E+00
   -1    3    0    2    2    0.00000000E+00   0.00000000E+00
   -1    4    0    1    1    0.00000000E+00   0.00000000E+00
   -1    4    0    2    1    0.00000000E+00   0.00000000E+00
   -1    4    0    1    2    0.00000000E+00   0.00000000E+00
   -1    4    0    2    2    0.00000000E+00   0.00000000E+00
   -1    5    0    1    1    0.00000000E+00   0.00000000E+00
   -1    5    0    2    1    0.00000000E+00   0.00000000E+00
   -1    5    0    1    2    0.00000000E+00   0.00000000E+00
   -1    5    0    2    2    0.00000000E+00   0.00000000E+00
   -1    6    0    1    1    0.00000000E+00   0.00000000E+00
   -1    6    0    2    1    0.00000000E+00   0.00000000E+00
   -1    6    0    1    2    0.00000000E+00   0.00000000E+00
   -1    6    0    2    2    0.00000000E+00   0.00000000E+00
   -1    7    0    1    1    0.00000000E+00   0.00000000E+00
   -1    7    0    2    1    0.00000000E+00   0.00000000E+00
   -1    7    0    1    2    0.00000000E+00   0.00000000E+00
   -1    7    0    2    2    0.00000000E+00   0.00000000E+00
   -1    8    0    1    1    0.00000000E+00   0.00000000E+00
   -1    8    0    2    1    0.00000000E+00   0.00000000E+00
   -1    8    0    1    2    0.00000000E+00   0.00000000E+00
   -1    8    0    2    2    0.00000000E+00   0.00000000E+00
   -1    9    0    1    1    0.00000000E+00   0.00000000E+00
   -1    9    0    2    1    0.00000000E+00   0.00000000E+00
   -1    9    0    1    2    0.00000000E+00   0.00000000E+00
   -1    9    0    2    2    0.00000000E+00   0.00000000E+00
    0   -9    0    1    1    0.00000000E+00   0.00000000E+00
    0   -9    0    2    1    0.00000000E+00   0.00000000E+00
    0   -9    0    1    2    0.00000000E+00   0.00000000E+00
    0   -9    0    2    2    0.00000000E+00   0.00000000E+00
    0   -8    0    1    1    0.00000000E+00   0.00000000E+00
    0   -8    0    2    1    0.00000000E+00   0.00000000E+00
    0   -8    0    1    2    0.00000000E+00   0.00000000E+00
    0   -8    0    2    2    0.00000000E+00   0.00000000E+00
    0   -7    0    1    1    0.00000000E+00   0.00000000E+00
    0   -7    0    2    1    0.00000000E+00   0.00000000E+00
    0   -7    0    1    2    0.00000000E+00   0.00000000E+00
    0   -7    0    2    2    0.00000000E+00   0.00000000E+00
    0   -6    0    1    1    0.00000000E+00   0.00000000E+00
    0   -6    0    2    1    0.00000000E+00   0.00000000E+00
    0   -6    0    1    2    0.00000000E+00   0.00000000E+00
    0   -6    0    2    2    0.00000000E+00   0.00000000E+00
    0   -5    0    1    1    0.00000000E+00   0.00000000E+00
    0   -5    0    2    1    0.00000000E+00   0.00000000E+00
    0   -5    0    1    2    0.00000000E+00   0.00000000E+00
    0   -5    0    2    2    0.00000000E+00   0.00000000E+00
    0   -4    0    1    1    0.00000000E+00   0.00000000E+00
    0   -4    0    2    1    0.00000000E+00   0.00000000E+00
    0   -4    0    1    2    0.00000000E+00   0.00000000E+00
    0   -4    0    2    2    0.00000000E+00   0.00000000E+00
    0   -3    0    1    1    0.00000000E+00   0.00000000E+00
    0   -3    0    2    1    0.00000000E+00   0.00000000E+00
    0   -3    0    1    2    0.00000000E+00   0.00000000E+00
    0   -3    0    2    2    0.00000000E+00   0.00000000E+00
    0   -2    0    1    1   -2.04045997E-02   0.00000000E+00
    0   -2    0    2    1    0.00000000E+00   0.00000000E+00
    0   -2    0    1    2    1.55206534E-02   0.00000000E+00
    0   -2    0    2    2   -2.04045997E-02   0.00000000E+00
    0   -1    0    1    1    2.35704719E-01   0.00000000E+00
    0   -1    0    2    1    1.55206534E-02   0.00000000E+00
    0   -1    0    1    2   -3.00657492E+00   0.00000000E+00
    0   -1    0    2    2    2.35704719E-01   0.00000000E+00
    0    0    0    1    1    1.48268851E-01   0.00000000E+00
    0    0    0    2    1   -3.00657492E+00   0.00000000E+00
    0    0    0    1    2   -3.00657492E+00   0.00000000E+00
    0    0    0    2    2    1.48268851E-01   0.00000000E+00
    0    1    0    1    1    2.35704719E-01   0.00000000E+00
    0    1    0    2    1   -3.00657492E+00   0.00000000E+00
    0    1    0    1    2    1.55206534E-02   0.00000000E+00
    0    1    0    2    2    2.35704719E-01   0.00000000E+00
    0    2    0    1    1   -2.04045997E-02   0.00000000E+00
    0    2    0    2    1    1.55206534E-02   0.00000000E+00
    0    2    0    1    2    0.00000000E+00   0.00000000E+00
    0    2    0    2    2   -2.04045997E-02   0.00000000E+00
    0    3    0    1    1    0.00000000E+00   0.00000000E+00
    0    3    0    2    1    0.00000000E+00   0.00000000E+00
    0    3    0    1    2    0.00000000E+00   0.00000000E+00
    0    3    0    2    2    0.00000000E+00   0.00000000E+00
    0    4    0    1    1    0.00000000E+00   0.00000000E+00
    0    4    0    2    1    0.00000000E+00   0.00000000E+00
    0    4    0    1    2    0.00000000E+00   0.00000000E+00
    0    4    0    2    2    0.00000000E+00   0.00000000E+00
    0    5    0    1    1    0.00000000E+00   0.00000000E+00
    0    5    0    2    1    0.00000000E+00   0.00000000E+00
    0    5    0    1    2    0.00000000E+00   0.00000000E+00
    0    5    0    2    2    0.00000000E+00   0.00000000E+00
    0    6    0    1    1    0.00000000E+00   0.00000000E+00
    0    6    0    2    1    0.00000000E+00   0.00000000E+00
    0    6    0    1    2    0.00000000E+00   0.00000000E+00
    0    6    0    2    2    0.00000000E+00   0.00000000E+00
    0    7    0    1    1    0.00000000E+00   0.00000000E+00
    0    7    0    2    1    0.00000000E+00   0.00000000E+00
    0    7    0    1    2    0.00000000E+00   0.00000000E+00
    0    7    0    2    2    0.00000000E+00   0.00000000E+00
    0    8    0    1    1    0.00000000E+00   0.00000000E+00
    0    8    0    2    1    0.00000000E+00   0.00000000E+00
    0    8    0    1    2    0.00000000E+00   0.00000000E+00
    0    8    0    2    2    0.00000000E+00   0.00000000E+00
    0    9    0    1    1    0.00000000E+00   0.00000000E+00
    0    9    0    2    1    0.00000000E+00   0.00000000E+00
    0    9    0    1    2    0.00000000E+00   0.00000000E+00
    0    9    0    2    2    0.00000000E+00   0.00000000E+00
    1   -9    0    1    1    0.00000000E+00   0.00000000E+00
    1   -9    0    2    1    0.00000000E+00   0.00000000E+00
    1   -9    0    1    2    0.00000000E+00   0.00000000E+00
    1   -9    0    2    2    0.00000000E+00   0.00000000E+00
    1   -8    0    1    1    0.00000000E+00   0.00000000E+00
    1   -8    0    2    1    0.00000000E+00   0.00000000E+00
    1   -8    0    1    2    0.00000000E+00   0.00000000E+00
    1   -8    0    2    2    0.00000000E+00   0.00000000E+00
    1   -7    0    1    1    0.00000000E+00   0.00000000E+00
    1   -7    0    2    1    0.00000000E+00   0.00000000E+00
    1   -7    0    1    2    0.00000000E+00   0.00000000E+00
    1   -7    0    2    2    0.00000000E+00   0.00000000E+00
    1   -6    0    1    1    0.00000000E+00   0.00000000E+00
    1   -6    0    2    1    0.00000000E+00   0.00000000E+00
    1   -6    0    1    2    0.00000000E+00   0.00000000E+00
    1   -6    0    2    2    0.00000000E+00   0.00000000E+00
    1   -5    0    1    1    0.00000000E+00   0.00000000E+00
    1   -5    0    2    1    0.00000000E+00   0.00000000E+00
    1   -5    0    1    2    0.00000000E+00   0.00000000E+00
    1   -5    0    2    2    0.00000000E+00   0.00000000E+00
    1   -4    0    1    1    0.00000000E+00   0.00000000E+00
    1   -4    0    2    1    0.00000000E+00   0.00000000E+00
    1   -4    0    1    2    0.00000000E+00   0.00000000E+00
    1   -4    0    2    2    0.00000000E+00   0.00000000E+00
    1   -3    0    1    1    0.00000000E+00   0.00000000E+00
    1   -3    0    2    1    0.00000000E+00   0.00000000E+00
    1   -3    0    1    2    0.00000000E+00   0.00000000E+00
    1   -3    0    2    2    0.00000000E+00   0.00000000E+00
    1   -2    0    1    1    0.00000000E+00   0.00000000E+00
    1   -2    0    2    1    0.00000000E+00   0.00000000E+00
    1   -2    0    1    2    0.00000000E+00   0.00000000E+00
    1   -2    0    2    2    0.00000000E+00   0.00000000E+00
    1   -1    0    1    1    5.67238858E-02   0.00000000E+00
    1   -1    0    2    1    0.00000000E+00   0.00000000E+00
    1   -1    0    1    2   -2.84863896E-01   0.00000000E+00
    1   -1    0    2    2    5.67238858E-02   0.00000000E+00
    1    0    0    1    1    2.35704719E-01   0.00000000E+00
    1    0    0    2    1    1.55206534E-02   0.00000000E+00
    1    0    0    1    2   -3.00657492E+00   0.00000000E+00
    1    0    0    2    2    2.35704719E-01   0.00000000E+00
    1    1    0    1    1    2.35704719E-01   0.00000000E+00
    1    1    0    2    1   -2.84863896E-01   0.00000000E+00
    1    1    0    1    2   -2.84863896E-01   0.00000000E+00
    1    1    0    2    2    2.35704719E-01   0.00000000E+00
    1    2    0    1    1    5.67238858E-02   0.00000000E+00
    1    2    0    2    1    1.55206534E-02   0.00000000E+00
    1    2    0    1    2    0.00000000E+00   0.00000000E+00
    1    2    0    2    2    5.67238858E-02   0.00000000E+00
    1    3    0    1    1    0.00000000E+00   0.00000000E+00
    1    3    0    2    1    0.00000000E+00   0.00000000E+00
    1    3    0    1    2    0.00000000E+00   0.00000000E+00
    1    3    0    2    2    0.00000000E+00   0.00000000E+00
    1    4    0    1    1    0.00000000E+00   0.00000000E+00
    1    4    0    2    1    0.00000000E+00   0.00000000E+00
    1    4    0    1    2    0.00000000E+00   0.00000000E+00
    1    4    0    2    2    0.00000000E+00   0.00000000E+00
    1    5    0    1    1    0.00000000E+00   0.00000000E+00
    1    5    0    2    1    0.00000000E+00   0.00000000E+00
    1    5    0    1    2    0.00000000E+00   0.00000000E+00
    1    5    0    2    2    0.00000000E+00   0.00000000E+00
    1    6    0    1    1    0.00000000E+00   0.00000000E+00
    1    6    0    2    1    0.00000000E+00   0.00000000E+00
    1    6    0    1    2    0.00000000E+00   0.00000000E+00
    1    6    0    2    2    0.00000000E+00   0.00000000E+00
    1    7    0    1    1    0.00000000E+00   0.00000000E+00
    1    7    0    2    1    0.00000000E+00   0.00000000E+00
    1    7    0    1    2    0.00000000E+00   0.00000000E+00
    1    7    0    2    2    0.00000000E+00   0.00000000E+00
    1    8    0    1    1    0.00000000E+00   0.00000000E+00
    1    8    0    2    1    0.00000000E+00   0.00000000E+00
    1    8    0    1    2    0.00000000E+00   0.00000000E+00
    1    8    0    2    2    0.00000000E+00   0.00000000E+00
    1    9    0    1    1    0.00000000E+00   0.00000000E+00
    1    9    0    2    1    0.00000000E+00   0.00000000E+00
    1    9    0    1    2    0.00000000E+00   0.00000000E+00
    1    9    0    2    2    0.00000000E+00   0.00000000E+00
    1   10    0    1    1    0.00000000E+00   0.00000000E+00
    1   10    0    2    1    0.00000000E+00   0.00000000E+00
    1   10    0    1    2    0.00000000E+00   0.00000000E+00
    1   10    0    2    2    0.00000000E+00   0.00000000E+00
    2   -8    0    1    1    0.00000000E+00   0.00000000E+00
    2   -8    0    2    1    0.00000000E+00   0.00000000E+00
    2   -8    0    1    2    0.00000000E+00   0.00000000E+00
    2   -8    0    2    2    0.00000000E+00   0.00000000E+00
    2   -7    0    1    1    0.00000000E+00   0.00000000E+00
    2   -7    0    2    1    0.00000000E+00   0.00000000E+00
    2   -7    0    1    2    0.00000000E+00   0.00000000E+00
    2   -7    0    2    2    0.00000000E+00   0.00000000E+00
    2   -6    0    1    1    0.00000000E+00   0.00000000E+00
    2   -6    0    2    1    0.00000000E+00   0.00000000E+00
    2   -6    0    1    2    0.00000000E+00   0.00000000E+00
    2   -6    0    2    2    0.00000000E+00   0.00000000E+00
    2   -5    0    1    1    0.00000000E+00   0.00000000E+00
    2   -5    0    2    1    0.00000000E+00   0.00000000E+00
    2   -5    0    1    2    0.00000000E+00   0.00000000E+00
    2   -5    0    2    2    0.00000000E+00   0.00000000E+00
    2   -4    0    1    1    0.00000000E+00   0.00000000E+00
    2   -4    0    2    1    0.00000000E+00   0.00000000E+00
    2   -4    0    1    2    0.00000000E+00   0.00000000E+00
    2   -4    0    2    2    0.00000000E+00   0.00000000E+00
    2   -3    0    1    1    0.00000000E+00   0.00000000E+00
    2   -3    0    2    1    0.00000000E+00   0.00000000E+00
    2   -3    0    1    2    0.00000000E+00   0.00000000E+00
    2   -3    0    2    2    0.00000000E+00   0.00000000E+00
    2   -2    0    1    1    0.00000000E+00   0.00000000E+00
    2   -2    0    2    1    0.00000000E+00   0.00000000E+00
    2   -2    0    1    2    0.00000000E+00   0.00000000E+00
    2   -2    0    2    2    0.00000000E+00   0.00000000E+00
    2   -1    0    1    1    0.00000000E+00   0.00000000E+00
    2   -1    0    2    1    0.00000000E+00   0.00000000E+00
    2   -1    0    1    2    0.00000000E+00   0.00000000E+00
    2   -1    0    2    2    0.00000000E+00   0.00000000E+00
    2    0    0    1    1   -2.04045997E-02   0.00000000E+00
    2    0    0    2    1    0.00000000E+00   0.00000000E+00
    2    0    0    1    2    1.55206534E-02   0.00000000E+00
    2    0    0    2    2   -2.04045997E-02   0.00000000E+00
    2    1    0    1    1    5.67238858E-02   0.00000000E+00
    2    1    0    2    1    0.00000000E+00   0.00000000E+00
    2    1    0    1    2    1.55206534E-02   0.00000000E+00
    2    1    0    2    2    5.67238858E-02   0.00000000E+00
    2    2    0    1    1   -2.04045997E-02   0.00000000E+00
    2    2    0    2    1    0.00000000E+00   0.00000000E+00
    2    2    0    1    2    0.00000000E+00   0.00000000E+00
    2    2    0    2    2   -2.04045997E-02   0.00000000E+00
    2    3    0    1    1    0.00000000E+00   0.00000000E+00
    2    3    0    2    1    0.00000000E+00   0.00000000E+00
    2    3    0    1    2    0.00000000E+00   0.00000000E+00
    2    3    0    2    2    0.00000000E+00   0.00000000E+00
    2    4    0    1    1    0.00000000E+00   0.00000000E+00
    2    4    0    2    1    0.00000000E+00   0.00000000E+00
    2    4    0    1    2    0.00000000E+00   0.00000000E+00
    2    4    0    2    2    0.00000000E+00   0.00000000E+00
    2    5    0    1    1    0.00000000E+00   0.00000000E+00
    2    5    0    2    1    0.00000000E+00   0.00000000E+00
    2    5    0    1    2    0.00000000E+00   0.00000000E+00
    2    5    0    2    2    0.00000000E+00   0.00000000E+00
    2    6    0    1    1    0.00000000E+00   0.00000000E+00
    2    6    0    2    1    0.00000000E+00   0.00000000E+00
    2    6    0    1    2    0.00000000E+00   0.00000000E+00
    2    6    0    2    2    0.00000000E+00   0.00000000E+00
    2    7    0    1    1    0.00000000E+00   0.00000000E+00
    2    7    0    2    1    0.00000000E+00   0.00000000E+00
    2    7    0    1    2    0.00000000E+00   0.00000000E+00
    2    7    0    2    2    0.00000000E+00   0.00000000E+00
    2    8    0    1    1    0.00000000E+00   0.00000000E+00
    2    8    0    2    1    0.00000000E+00   0.00000000E+00
    2    8    0    1    2    0.00000000E+00   0.00000000E+00
    2    8    0    2    2    0.00000000E+00   0.00000000E+00
    2    9    0    1    1    0.00000000E+00   0.00000000E+00
    2    9    0    2    1    0.00000000E+00   0.00000000E+00
    2    9    0    1    2    0.00000000E+00   0.00000000E+00
    2    9    0    2    2    0.00000000E+00   0.00000000E+00
    2   10    0    1    1    0.00000000E+00   0.00000000E+00
    2   10    0    2    1    0.00000000E+00   0.00000000E+00
    2   10    0    1    2    0.00000000E+00   0.00000000E+00
    2   10    0    2    2    0.00000000E+00   0.00000000E+00
    3   -8    0    1    1    0.00000000E+00   0.00000000E+00
    3   -8    0    2    1    0.00000000E+00   0.00000000E+00
    3   -8    0    1    2    0.00000000E+00   0.00000000E+00
    3   -8    0    2    2    0.00000000E+00   0.00000000E+00
    3   -7    0    1    1    0.00000000E+00   0.00000000E+00
    3   -7    0    2    1    0.00000000E+00   0.00000000E+00
    3   -7    0    1    2    0.00000000E+00   0.00000000E+00
    3   -7    0    2    2    0.00000000E+00   0.00000000E+00
    3   -6    0    1    1    0.00000000E+00   0.00000000E+00
    3   -6    0    2    1    0.00000000E+00   0.00000000E+00
    3   -6    0    1    2    0.00000000E+00   0.00000000E+00
    3   -6    0    2    2    0.00000000E+00   0.00000000E+00
    3   -5    0    1    1    0.00000000E+00   0.00000000E+00
    3   -5    0    2    1    0.00000000E+00   0.00000000E+00
    3   -5    0    1    2    0.00000000E+00   0.00000000E+00
    3   -5    0    2    2    0.00000000E+00   0.00000000E+00
    3   -4    0    1    1    0.00000000E+00   0.00000000E+00
    3   -4    0    2    1    0.00000000E+00   0.00000000E+00
    3   -4    0    1    2    0.00000000E+00   0.00000000E+00
    3   -4    0    2    2    0.00000000E+00   0.00000000E+00
    3   -3    0    1    1    0.00000000E+00   0.00000000E+00
    3   -3    0    2    1    0.00000000E+00   0.00000000E+00
    3   -3    0    1    2    0.00000000E+00   0.00000000E+00
    3   -3    0    2    2    0.00000000E+00   0.00000000E+00
    3   -2    0    1    1    0.00000000E+00   0.00000000E+00
    3   -2    0    2    1    0.00000000E+00   0.00000000E+00
    3   -2    0    1    2    0.00000000E+00   0.00000000E+00
    3   -2    0    2    2    0.00000000E+00   0.00000000E+00
    3   -1    0    1    1    0.00000000E+00   0.00000000E+00
    3   -1    0    2    1    0.00000000E+00   0.00000000E+00
    3   -1    0    1    2    0.00000000E+00   0.00000000E+00
    3   -1    0    2    2    0.00000000E+00   0.00000000E+00
    3    0    0    1    1    0.00000000E+00   0.00000000E+00
    3    0    0    2    1    0.00000000E+00   0.00000000E+00
    3    0    0    1    2    0.00000000E+00   0.00000000E+00
    3    0    0    2    2    0.00000000E+00   0.00000000E+00
    3    1    0    1    1    0.00000000E+00   0.00000000E+00
    3    1    0    2    1    0.00000000E+00   0.00000000E+00
    3    1    0    1    2    0.00000000E+00   0.00000000E+00
    3    1    0    2    2    0.00000000E+00   0.00000000E+00
    3    2    0    1    1    0.00000000E+00   0.00000000E+00
    3    2    0    2    1    0.00000000E+00   0.00000000E+00
    3    2    0    1    2    0.00000000E+00   0.00000000E+00
    3    2    0    2    2    0.00000000E+00   0.00000000E+00
    3    3    0    1    1    0.00000000E+00   0.00000000E+00
    3    3    0    2    1    0.00000000E+00   0.00000000E+00
    3    3    0    1    2    0.00000000E+00   0.00000000E+00
    3    3    0    2    2    0.00000000E+00   0.00000000E+00
    3    4    0    1    1    0.00000000E+00   0.00000000E+00
    3    4    0    2    1    0.00000000E+00   0.00000000E+00
    3    4    0    1    2    0.00000000E+00   0.00000000E+00
    3    4    0    2    2    0.00000000E+00   0.00000000E+00
    3    5    0    1    1    0.00000000E+00   0.00000000E+00
    3    5    0    2    1    0.00000000E+00   0.00000000E+00
    3    5    0    1    2    0.00000000E+00   0.00000000E+00
    3    5    0    2    2    0.00000000E+00   0.00000000E+00
    3    6    0    1    1    0.00000000E+00   0.00000000E+00
    3    6    0    2    1    0.00000000E+00   0.00000000E+00
    3    6    0    1    2    0.00000000E+00   0.00000000E+00
    3    6    0    2    2    0.00000000E+00   0.00000000E+00
    3    7    0    1    1    0.00000000E+00   0.00000000E+00
    3    7    0    2    1    0.00000000E+00   0.00000000E+00
    3    7    0    1    2    0.00000000E+00   0.00000000E+00
    3    7    0    2    2    0.00000000E+00   0.00000000E+00
    3    8    0    1    1    0.00000000E+00   0.00000000E+00
    3    8    0    2    1    0.00000000E+00   0.00000000E+00
    3    8    0    1    2    0.00000000E+00   0.00000000E+00
    3    8    0    2    2    0.00000000E+00   0.00000000E+00
    3    9    0    1    1    0.00000000E+00   0.00000000E+00
    3    9    0    2    1    0.00000000E+00   0.00000000E+00
    3    9    0    1    2    0.00000000E+00   0.00000000E+00
    3    9    0    2    2    0.00000000E+00   0.00000000E+00
    3   10    0    1    1    0.00000000E+00   0.00000000E+00
    3   10    0    2    1    0.00000000E+00   0.00000000E+00
    3   10    0    1    2    0.00000000E+00   0.00000000E+00
    3   10    0    2    2    0.00000000E+00   0.00000000E+00
    3   11    0    1    1    0.00000000E+00   0.00000000E+00
    3   11    0    2    1    0.00000000E+00   0.00000000E+00
    3   11    0    1    2    0.00000000E+00   0.00000000E+00
    3   11    0    2    2    0.00000000E+00   0.00000000E+00
    4   -7    0    1    1    0.00000000E+00   0.00000000E+00
    4   -7    0    2    1    0.00000000E+00   0.00000000E+00
    4   -7    0    1    2    0.00000000E+00   0.00000000E+00
    4   -7    0    2    2    0.00000000E+00   0.00000000E+00
    4   -6    0    1    1    0.00000000E+00   0.00000000E+00
    4   -6    0    2    1    0.00000000E+00   0.00000000E+00
    4   -6    0    1    2    0.00000000E+00   0.00000000E+00
    4   -6    0    2    2    0.00000000E+00   0.00000000E+00
    4   -5    0    1    1    0.00000000E+00   0.00000000E+00
    4   -5    0    2    1    0.00000000E+00   0.00000000E+00
    4   -5    0    1    2    0.00000000E+00   0.00000000E+00
    4   -5    0    2    2    0.00000000E+00   0.00000000E+00
    4   -4    0    1    1    0.00000000E+00   0.00000000E+00
    4   -4    0    2    1    0.00000000E+00   0.00000000E+00
    4   -4    0    1    2    0.00000000E+00   0.00000000E+00
    4   -4    0    2    2    0.00000000E+00   0.00000000E+00
    4   -3    0    1    1    0.00000000E+00   0.00000000E+00
    4   -3    0    2    1    0.00000000E+00   0.00000000E+00
    4   -3    0    1    2    0.00000000E+00   0.00000000E+00
    4   -3    0    2    2    0.00000000E+00   0.00000000E+00
    4   -2    0    1    1    0.00000000E+00   0.00000000E+00
    4   -2    0    2    1    0.00000000E+00   0.00000000E+00
    4   -2    0    1    2    0.00000000E+00   0.00000000E+00
    4   -2    0    2    2    0.00000000E+00   0.00000000E+00
    4   -1    0    1    1    0.00000000E+00   0.00000000E+00
    4   -1    0    2    1    0.00000000E+00   0.00000000E+00
    4   -1    0    1    2    0.00000000E+00   0.00000000E+00
    4   -1    0    2    2    0.00000000E+00   0.00000000E+00
    4    0    0    1    1    0.00000000E+00   0.00000000E+00
    4    0    0    2    1    0.00000000E+00   0.00000000E+00
    4    0    0    1    2    0.00000000E+00   0.00000000E+00
    4    0    0    2    2    0.00000000E+00   0.00000000E+00
    4    1    0    1    1    0.00000000E+00   0.00000000E+00
    4    1    0    2    1    0.00000000E+00   0.00000000E+00
    4    1    0    1    2    0.00000000E+00   0.00000000E+00
    4    1    0    2    2    0.00000000E+00   0.00000000E+00
    4    2    0    1    1    0.00000000E+00   0.00000000E+00
    4    2    0    2    1    0.00000000E+00   0.00000000E+00
    4    2    0    1    2    0.00000000E+00   0.00000000E+00
    4    2    0    2    2    0.00000000E+00   0.00000000E+00
    4    3    0    1    1    0.00000000E+00   0.00000000E+00
    4    3    0    2    1    0.00000000E+00   0.00000000E+00
    4    3    0    1    2    0.00000000E+00   0.00000000E+00
    4    3    0    2    2    0.00000000E+00   0.00000000E+00
    4    4    0    1    1    0.00000000E+00   0.00000000E+00
    4    4    0    2    1    0.00000000E+00   0.00000000E+00
    4    4    0    1    2    0.00000000E+00   0.00000000E+00
    4    4    0    2    2    0.00000000E+00   0.00000000E+00
    4    5    0    1    1    0.00000000E+00   0.00000000E+00
    4    5    0    2    1    0.00000000E+00   0.00000000E+00
    4    5    0    1    2    0.00000000E+00   0.00000000E+00
    4    5    0    2    2    0.00000000E+00   0.00000000E+00
    4    6    0    1    1    0.00000000E+00   0.00000000E+00
    4    6    0    2    1    0.00000000E+00   0.00000000E+00
    4    6    0    1    2    0.00000000E+00   0.00000000E+00
    4    6    0    2    2    0.00000000E+00   0.00000000E+00
    4    7    0    1    1    0.00000000E+00   0.00000000E+00
    4    7    0    2    1    0.00000000E+00   0.00000000E+00
    4    7    0    1    2    0.00000000E+00   0.00000000E+00
    4    7    0    2    2    0.00000000E+00   0.00000000E+00
    4    8    0    1    1    0.00000000E+00   0.00000000E+00
    4    8    0    2    1    0.00000000E+00   0.00000000E+00
    4    8    0    1    2    0.00000000E+00   0.00000000E+00
    4    8    0    2    2    0.00000000E+00   0.00000000E+00
    4    9    0    1    1    0.00000000E+00   0.00000000E+00
    4    9    0    2    1    0.00000000E+00   0.00000000E+00
    4    9    0    1    2    0.00000000E+00   0.00000000E+00
    4    9    0    2    2    0.00000000E+00   0.00000000E+00
    4   10    0    1    1    0.00000000E+00   0.00000000E+00
    4   10    0    2    1    0.00000000E+00   0.00000000E+00
    4   10    0    1    2    0.00000000E+00   0.00000000E+00
    4   10    0    2    2    0.00000000E+00   0.00000000E+00
    4   11    0    1    1    0.00000000E+00   0.00000000E+00
    4   11    0    2    1    0.00000000E+00   0.00000000E+00
    4   11    0    1    2    0.00000000E+00   0.00000000E+00
    4   11    0    2    2    0.00000000E+00   0.00000000E+00
    5   -7    0    1    1    0.00000000E+00   0.00000000E+00
    5   -7    0    2    1    0.00000000E+00   0.00000000E+00
    5   -7    0    1    2    0.00000000E+00   0.00000000E+00
    5   -7    0    2    2    0.00000000E+00   0.00000000E+00
    5   -6    0    1    1    0.00000000E+00   0.00000000E+00
    5   -6    0    2    1    0.00000000E+00   0.00000000E+00
    5   -6    0    1    2    0.00000000E+00   0.00000000E+00
    5   -6    0    2    2    0.00000000E+00   0.00000000E+00
    5   -5    0    1    1    0.00000000E+00   0.00000000E+00
    5   -5    0    2    1    0.00000000E+00   0.00000000E+00
    5   -5    0    1    2    0.00000000E+00   0.00000000E+00
    5   -5    0    2    2    0.00000000E+00   0.00000000E+00
    5   -4    0    1    1    0.00000000E+00   0.00000000E+00
    5   -4    0    2    1    0.00000000E+00   0.00000000E+00
    5   -4    0    1    2    0.00000000E+00   0.00000000E+00
    5   -4    0    2    2    0.00000000E+00   0.00000000E+00
    5   -3    0    1    1    0.00000000E+00   0.00000000E+00
    5   -3    0    2    1    0.00000000E+00   0.00000000E+00
    5   -3    0    1    2    0.00000000E+00   0.00000000E+00
    5   -3    0    2    2    0.00000000E+00   0.00000000E+00
    5   -2    0    1    1    0.00000000E+00   0.00000000E+00
    5   -2    0    2    1    0.00000000E+00   0.00000000E+00
    5   -2    0    1    2    0.00000000E+00   0.00000000E+00
    5   -2    0    2    2    0.00000000E+00   0.00000000E+00
    5   -1    0    1    1    0.00000000E+00   0.00000000E+00
    5   -1    0    2    1    0.00000000E+00   0.00000000E+00
    5   -1    0    1    2    0.00000000E+00   0.00000000E+00
    5   -1    0    2    2    0.00000000E+00   0.00000000E+00
    5    0    0    1    1    0.00000000E+00   0.00000000E+00
    5    0    0    2    1    0.00000000E+00   0.00000000E+00
    5    0    0    1    2    0.00000000E+00   0.00000000E+00
    5    0    0    2    2    0.00000000E+00   0.00000000E+00
    5    1    0    1    1    0.00000000E+00   0.00000000E+00
    5    1    0    2    1    0.00000000E+00   0.00000000E+00
    5    1    0    1    2    0.00000000E+00   0.00000000E+00
    5    1    0    2    2    0.00000000E+00   0.00000000E+00
    5    2    0    1    1    0.00000000E+00   0.00000000E+00
    5    2    0    2    1    0.00000000E+00   0.00000000E+00
    5    2    0    1    2    0.00000000E+00   0.00000000E+00
    5    2    0    2    2    0.00000000E+00   0.00000000E+00
    5    3    0    1    1    0.00000000E+00   0.00000000E+00
    5    3    0    2    1    0.00000000E+00   0.00000000E+00
    5    3    0    1    2    0.00000000E+00   0.00000000E+00
    5    3    0    2    2    0.00000000E+00   0.00000000E+00
    5    4    0    1    1    0.00000000E+00   0.00000000E+00
    5    4    0    2    1    0.00000000E+00   0.00000000E+00
    5    4    0    1    2    0.00000000E+00   0.00000000E+00
    5    4    0    2    2    0.00000000E+00   0.00000000E+00
    5    5    0    1    1    0.00000000E+00   0.00000000E+00
    5    5    0    2    1    0.00000000E+00   0.00000000E+00
    5    5    0    1    2    0.00000000E+00   0.00000000E+00
    5    5    0    2    2    0.00000000E+00   0.00000000E+00
    5    6    0    1    1    0.00000000E+00   0.00000000E+00
    5    6    0    2    1    0.00000000E+00   0.00000000E+00
    5    6    0    1    2    0.00000000E+00   0.00000000E+00
    5    6    0    2    2    0.00000000E+00   0.00000000E+00
    5    7    0    1    1    0.00000000E+00   0.00000000E+00
    5    7    0    2    1    0.00000000E+00   0.00000000E+00
    5    7    0    1    2    0.00000000E+00   0.00000000E+00
    5    7    0    2    2    0.00000000E+00   0.00000000E+00
    5    8    0    1    1    0.00000000E+00   0.00000000E+00
    5    8    0    2    1    0.00000000E+00   0.00000000E+00
    5    8    0    1    2    0.00000000E+00   0.00000000E+00
    5    8    0    2    2    0.00000000E+00   0.00000000E+00
    5    9    0    1    1    0.00000000E+00   0.00000000E+00
    5    9    0    2    1    0.00000000E+00   0.00000000E+00
    5    9    0    1    2    0.00000000E+00   0.00000000E+00
    5    9    0    2    2    0.00000000E+00   0.00000000E+00
    5   10    0    1    1    0.00000000E+00   0.00000000E+00
    5   10    0    2    1    0.00000000E+00   0.00000000E+00
    5   10    0    1    2    0.00000000E+00   0.00000000E+00
    5   10    0    2    2    0.00000000E+00   0.00000000E+00
    5   11    0    1    1    0.00000000E+00   0.00000000E+00
    5   11    0    2    1    0.00000000E+00   0.00000000E+00
    5   11    0    1    2    0.00000000E+00   0.00000000E+00
    5   11    0    2    2    0.00000000E+00   0.00000000E+00
    5   12    0    1    1    0.00000000E+00   0.00000000E+00
    5   12    0    2    1    0.00000000E+00   0.00000000E+00
    5   12    0    1    2    0.00000000E+00   0.00000000E+00
    5   12    0    2    2    0.00000000E+00   0.00000000E+00
    6   -6    0    1    1    0.00000000E+00   0.00000000E+00
    6   -6    0    2    1    0.00000000E+00   0.00000000E+00
    6   -6    0    1    2    0.00000000E+00   0.00000000E+00
    6   -6    0    2    2    0.00000000E+00   0.00000000E+00
    6   -5    0    1    1    0.00000000E+00   0.00000000E+00
    6   -5    0    2    1    0.00000000E+00   0.00000000E+00
    6   -5    0    1    2    0.00000000E+00   0.00000000E+00
    6   -5    0    2    2    0.00000000E+00   0.00000000E+00
    6   -4    0    1    1    0.00000000E+00   0.00000000E+00
    6   -4    0    2    1    0.00000000E+00   0.00000000E+00
    6   -4    0    1    2    0.00000000E+00   0.00000000E+00
    6   -4    0    2    2    0.00000000E+00   0.00000000E+00
    6   -3    0    1    1    0.00000000E+00   0.00000000E+00
    6   -3    0    2    1    0.00000000E+00   0.00000000E+00
    6   -3    0    1    2    0.00000000E+00   0.00000000E+00
    6   -3    0    2    2    0.00000000E+00   0.00000000E+00
    6   -2    0    1    1    0.00000000E+00   0.00000000E+00
    6   -2    0    2    1    0.00000000E+00   0.00000000E+00
    6   -2    0    1    2    0.00000000E+00   0.00000000E+00
    6   -2    0    2    2    0.00000000E+00   0.00000000E+00
    6   -1    0    1    1    0.00000000E+00   0.00000000E+00
    6   -1    0    2    1    0.00000000E+00   0.00000000E+00
    6   -1    0    1    2    0.00000000E+00   0.00000000E+00
    6   -1    0    2    2    0.00000000E+00   0.00000000E+00
    6    0    0    1    1    0.00000000E+00   0.00000000E+00
    6    0    0    2    1    0.00000000E+00   0.00000000E+00
    6    0    0    1    2    0.00000000E+00   0.00000000E+00
    6    0    0    2    2    0.00000000E+00   0.00000000E+00
    6    1    0    1    1    0.00000000E+00   0.00000000E+00
    6    1    0    2    1    0.00000000E+00   0.00000000E+00
    6    1    0    1    2    0.00000000E+00   0.00000000E+00
    6    1    0    2    2    0.00000000E+00   0.00000000E+00
    6    2    0    1    1    0.00000000E+00   0.00000000E+00
    6    2    0    2    1    0.00000000E+00   0.00000000E+00
    6    2    0    1    2    0.00000000E+00   0.00000000E+00
    6    2    0    2    2    0.00000000E+00   0.00000000E+00
    6    3    0    1    1    0.00000000E+00   0.00000000E+00
    6    3    0    2    1    0.00000000E+00   0.00000000E+00
    6    3    0    1    2    0.00000000E+00   0.00000000E+00
    6    3    0    2    2    0.00000000E+00   0.00000000E+00
    6    4    0    1    1    0.00000000E+00   0.00000000E+00
    6    4    0    2    1    0.00000000E+00   0.00000000E+00
    6    4    0    1    2    0.00000000E+00   0.00000000E+00
    6    4    0    2    2    0.00000000E+00   0.00000000E+00
    6    5    0    1    1    0.00000000E+00   0.00000000E+00
    6    5    0    2    1    0.00000000E+00   0.00000000E+00
    6    5    0    1    2    0.00000000E+00   0.00000000E+00
    6    5    0    2    2    0.00000000E+00   0.00000000E+00
    6    6    0    1    1    0.00000000E+00   0.00000000E+00
    6    6    0    2    1    0.00000000E+00   0.00000000E+00
    6    6    0    1    2    0.00000000E+00   0.00000000E+00
    6    6    0    2    2    0.00000000E+00   0.00000000E+00
    6    7    0    1    1    0.00000000E+00   0.00000000E+00
    6    7    0    2    1    0.00000000E+00   0.00000000E+00
    6    7    0    1    2    0.00000000E+00   0.00000000E+00
    6    7    0    2    2    0.00000000E+00   0.00000000E+00
    6    8    0    1    1    0.00000000E+00   0.00000000E+00
    6    8    0    2    1    0.00000000E+00   0.00000000E+00
    6    8    0    1    2    0.00000000E+00   0.00000000E+00
    6    8    0    2    2    0.00000000E+00   0.00000000E+00
    6    9    0    1    1    0.00000000E+00   0.00000000E+00
    6    9    0    2    1    0.00000000E+00   0.00000000E+00
    6    9    0    1    2    0.00000000E+00   0.00000000E+00
    6    9    0    2    2    0.00000000E+00   0.00000000E+00
    6   10    0    1    1    0.00000000E+00   0.00000000E+00
    6   10    0    2    1    0.00000000E+00   0.00000000E+00
    6   10    0    1    2    0.00000000E+00   0.00000000E+00
    6   10    0    2    2    0.00000000E+00   0.00000000E+00
    6   11    0    1    1    0.00000000E+00   0.00000000E+00
    6   11    0    2    1    0.00000000E+00   0.00000000E+00
    6   11    0    1    2    0.00000000E+00   0.00000000E+00
    6   11    0    2    2    0.00000000E+00   0.00000000E+00
    6   12    0    1    1    0.00000000E+00   0.00000000E+00
    6   12    0    2    1    0.00000000E+00   0.00000000E+00
    6   12    0    1    2    0.00000000E+00   0.00000000E+00
    6   12    0    2    2    0.00000000E+00   0.00000000E+00
    7   -5    0    1    1    0.00000000E+00   0.00000000E+00
    7   -5    0    2    1    0.00000000E+00   0.00000000E+00
    7   -5    0    1    2    0.00000000E+00   0.00000000E+00
    7   -5    0    2    2    0.00000000E+00   0.00000000E+00
    7   -4    0    1    1    0.00000000E+00   0.00000000E+00
    7   -4    0    2    1    0.00000000E+00   0.00000000E+00
    7   -4    0    1    2    0.00000000E+00   0.00000000E+00
    7   -4    0    2    2    0.00000000E+00   0.00000000E+00
    7   -3    0    1    1    0.00000000E+00   0.00000000E+00
    7   -3    0    2    1    0.00000000E+00   0.00000000E+00
    7   -3    0    1    2    0.00000000E+00   0.00000000E+00
    7   -3    0    2    2    0.00000000E+00   0.00000000E+00
    7   -2    0    1    1    0.00000000E+00   0.00000000E+00
    7   -2    0    2    1    0.00000000E+00   0.00000000E+00
    7   -2    0    1    2    0.00000000E+00   0.00000000E+00
    7   -2    0    2    2    0.00000000E+00   0.00000000E+00
    7   -1    0    1    1    0.00000000E+00   0.00000000E+00
    7   -1    0    2    1    0.00000000E+00   0.00000000E+00
    7   -1    0    1    2    0.00000000E+00   0.00000000E+00
    7   -1    0    2    2    0.00000000E+00   0.00000000E+00
    7    0    0    1    1    0.00000000E+00   0.00000000E+00
    7    0    0    2    1    0.00000000E+00   0.00000000E+00
    7    0    0    1    2    0.00000000E+00   0.00000000E+00
    7    0    0    2    2    0.00000000E+00   0.00000000E+00
    7    1    0    1    1    0.00000000E+00   0.00000000E+00
    7    1    0    2    1    0.00000000E+00   0.00000000E+00
    7    1    0    1    2    0.00000000E+00   0.00000000E+00
    7    1    0    2    2    0.00000000E+00   0.00000000E+00
    7    2    0    1    1    0.00000000E+00   0.00000000E+00
    7    2    0    2    1    0.00000000E+00   0.00000000E+00
    7    2    0    1    2    0.00000000E+00   0.00000000E+00
    7    2    0    2    2    0.00000000E+00   0.00000000E+00
    7    3    0    1    1    0.00000000E+00   0.00000000E+00
    7    3    0    2    1    0.00000000E+00   0.00000000E+00
    7    3    0    1    2    0.00000000E+00   0.00000000E+00
    7    3    0    2    2    0.00000000E+00   0.00000000E+00
    7    4    0    1    1    0.00000000E+00   0.00000000E+00
    7    4    0    2    1    0.00000000E+00   0.00000000E+00
    7    4    0    1    2    0.00000000E+00   0.00000000E+00
    7    4    0    2    2    0.00000000E+00   0.00000000E+00
    7    5    0    1    1    0.00000000E+00   0.00000000E+00
    7    5    0    2    1    0.00000000E+00   0.00000000E+00
    7    5    0    1    2    0.00000000E+00   0.00000000E+00
    7    5    0    2    2    0.00000000E+00   0.00000000E+00
    7    6    0    1    1    0.00000000E+00   0.00000000E+00
    7    6    0    2    1    0.00000000E+00   0.00000000E+00
    7    6    0    1    2    0.00000000E+00   0.00000000E+00
    7    6    0    2    2    0.00000000E+00   0.00000000E+00
    7    7    0    1    1    0.00000000E+00   0.00000000E+00
    7    7    0    2    1    0.00000000E+00   0.00000000E+00
    7    7    0    1    2    0.00000000E+00   0.00000000E+00
    7    7    0    2    2    0.00000000E+00   0.00000000E+00
    7    8    0    1    1    0.00000000E+00   0.00000000E+00
    7    8    0    2    1    0.00000000E+00   0.00000000E+00
    7    8    0    1    2    0.00000000E+00   0.00000000E+00
    7    8    0    2    2    0.00000000E+00   0.00000000E+00
    7    9    0    1    1    0.00000000E+00   0.00000000E+00
    7    9    0    2    1    0.00000000E+00   0.00000000E+00
    7    9    0    1    2    0.00000000E+00   0.00000000E+00
    7    9    0    2    2    0.00000000E+00   0.00000000E+00
    7   10    0    1    1    0.00000000E+00   0.00000000E+00
    7   10    0    2    1    0.00000000E+00   0.00000000E+00
    7   10    0    1    2    0.00000000E+00   0.00000000E+00
    7   10    0    2    2    0.00000000E+00   0.00000000E+00
    7   11    0    1    1    0.00000000E+00   0.00000000E+00
    7   11    0    2    1    0.00000000E+00   0.00000000E+00
    7   11    0    1    2    0.00000000E+00   0.00000000E+00
    7   11    0    2    2    0.00000000E+00   0.00000000E+00
    7   12    0    1    1    0.00000000E+00   0.00000000E+00
    7   12    0    2    1    0.00000000E+00   0.00000000E+00
    7   12    0    1    2    0.00000000E+00   0.00000000E+00
    7   12    0    2    2    0.00000000E+00   0.00000000E+00
    8   -3    0    1    1    0.00000000E+00   0.00000000E+00
    8   -3    0    2    1    0.00000000E+00   0.00000000E+00
    8   -3    0    1    2    0.00000000E+00   0.00000000E+00
    8   -3    0    2    2    0.00000000E+00   0.00000000E+00
    8   -2    0    1    1    0.00000000E+00   0.00000000E+00
    8   -2    0    2    1    0.00000000E+00   0.00000000E+00
    8   -2    0    1    2    0.00000000E+00   0.00000000E+00
    8   -2    0    2    2    0.00000000E+00   0.00000000E+00
    8   -1    0    1    1    0.00000000E+00   0.00000000E+00
    8   -1    0    2    1    0.00000000E+00   0.00000000E+00
    8   -1    0    1    2    0.00000000E+00   0.00000000E+00
    8   -1    0    2    2    0.00000000E+00   0.00000000E+00
    8    0    0    1    1    0.00000000E+00   0.00000000E+00
    8    0    0    2    1    0.00000000E+00   0.00000000E+00
    8    0    0    1    2    0.00000000E+00   0.00000000E+00
    8    0    0    2    2    0.00000000E+00   0.00000000E+00
    8    1    0    1    1    0.00000000E+00   0.00000000E+00
    8    1    0    2    1    0.00000000E+00   0.00000000E+00
    8    1    0    1    2    0.00000000E+00   0.00000000E+00
    8    1    0    2    2    0.00000000E+00   0.00000000E+00
    8    2    0    1    1    0.00000000E+00   0.00000000E+00
    8    2    0    2    1    0.00000000E+00   0.00000000E+00
    8    2    0    1    2    0.00000000E+00   0.00000000E+00
    8    2    0    2    2    0.00000000E+00   0.00000000E+00
    8    3    0    1    1    0.00000000E+00   0.00000000E+00
    8    3    0    2    1    0.00000000E+00   0.00000000E+00
    8    3    0    1    2    0.00000000E+00   0.00000000E+00
    8    3    0    2    2    0.00000000E+00   0.00000000E+00
    8    4    0    1    1    0.00000000E+00   0.00000000E+00
    8    4    0    2    1    0.00000000E+00   0.00000000E+00
    8    4    0    1    2    0.00000000E+00   0.00000000E+00
    8    4    0    2    2    0.00000000E+00   0.00000000E+00
    8    5    0    1    1    0.00000000E+00   0.00000000E+00
    8    5    0    2    1    0.00000000E+00   0.00000000E+00
    8    5    0    1    2    0.00000000E+00   0.00000000E+00
    8    5    0    2    2    0.00000000E+00   0.00000000E+00
    8    6    0    1    1    0.00000000E+00   0.00000000E+00
    8    6    0    2    1    0.00000000E+00   0.00000000E+00
    8    6    0    1    2    0.00000000E+00   0.00000000E+00
    8    6    0    2    2    0.00000000E+00   0.00000000E+00
    8    7    0    1    1    0.00000000E+00   0.00000000E+00
    8    7    0    2    1    0.00000000E+00   0.00000000E+00
    8    7    0    1    2    0.00000000E+00   0.00000000E+00
    8    7    0    2    2    0.00000000E+00   0.00000000E+00
    8    8    0    1    1    0.00000000E+00   0.00000000E+00
    8    8    0    2    1    0.00000000E+00   0.00000000E+00
    8    8    0    1    2    0.00000000E+00   0.00000000E+00
    8    8    0    2    2    0.00000000E+00   0.00000000E+00
    8    9    0    1    1    0.00000000E+00   0.00000000E+00
    8    9    0    2    1    0.00000000E+00   0.00000000E+00
    8    9    0    1    2    0.00000000E+00   0.00000000E+00
    8    9    0    2    2    0.00000000E+00   0.00000000E+00
    8   10    0    1    1    0.00000000E+00   0.00000000E+00
    8   10    0    2    1    0.00000000E+00   0.00000000E+00
    8   10    0    1    2    0.00000000E+00   0.00000000E+00
    8   10    0    2    2    0.00000000E+00   0.00000000E+00
    8   11    0    1    1    0.00000000E+00   0.00000000E+00
    8   11    0    2    1    0.00000000E+00   0.00000000E+00
    8   11    0    1    2    0.00000000E+00   0.00000000E+00
    8   11    0    2    2    0.00000000E+00   0.00000000E+00
    9   -1    0    1    1    0.00000000E+00   0.00000000E+00
    9   -1    0    2    1    0.00000000E+00   0.00000000E+00
    9   -1    0    1    2    0.00000000E+00   0.00000000E+00
    9   -1    0    2    2    0.00000000E+00   0.00000000E+00
    9    0    0    1    1    0.00000000E+00   0.00000000E+00
    9    0    0    2    1    0.00000000E+00   0.00000000E+00
    9    0    0    1    2    0.00000000E+00   0.00000000E+00
    9    0    0    2    2    0.00000000E+00   0.00000000E+00
    9    1    0    1    1    0.00000000E+00   0.00000000E+00
    9    1    0    2    1    0.00000000E+00   0.00000000E+00
    9    1    0    1    2    0.00000000E+00   0.00000000E+00
    9    1    0    2    2    0.00000000E+00   0.00000000E+00
    9    2    0    1    1    0.00000000E+00   0.00000000E+00
    9    2    0    2    1    0.00000000E+00   0.00000000E+00
    9    2    0    1    2    0.00000000E+00   0.00000000E+00
    9    2    0    2    2    0.00000000E+00   0.00000000E+00
    9    3    0    1    1    0.00000000E+00   0.00000000E+00
    9    3    0    2    1    0.00000000E+00   0.00000000E+00
    9    3    0    1    2    0.00000000E+00   0.00000000E+00
    9    3    0    2    2    0.00000000E+00   0.00000000E+00
    9    4    0    1    1    0.00000000E+00   0.00000000E+00
    9    4    0    2    1    0.00000000E+00   0.00000000E+00
    9    4    0    1    2    0.00000000E+00   0.00000000E+00
    9    4    0    2    2    0.00000000E+00   0.00000000E+00
    9    5    0    1    1    0.00000000E+00   0.00000000E+00
    9    5    0    2    1    0.00000000E+00   0.00000000E+00
    9    5    0    1    2    0.00000000E+00   0.00000000E+00
    9    5    0    2    2    0.00000000E+00   0.00000000E+00
    9    6    0    1    1    0.00000000E+00   0.00000000E+00
    9    6    0    2    1    0.00000000E+00   0.00000000E+00
    9    6    0    1    2    0.00000000E+00   0.00000000E+00
    9    6    0    2    2    0.00000000E+00   0.00000000E+00
    9    7    0    1    1    0.00000000E+00   0.00000000E+00
    9    7    0    2    1    0.00000000E+00   0.00000000E+00
    9    7    0    1    2    0.00000000E+00   0.00000000E+00
    9    7    0    2    2    0.00000000E+00   0.00000000E+00
    9    8    0    1    1    0.00000000E+00   0.00000000E+00
    9    8    0    2    1    0.00000000E+00   0.00000000E+00
    9    8    0    1    2    0.00000000E+00   0.00000000E+00
    9    8    0    2    2    0.00000000E+00   0.00000000E+00
    9    9    0    1    1    0.00000000E+00   0.00000000E+00
    9    9    0    2    1    0.00000000E+00   0.00000000E+00
    9    9    0    1    2    0.00000000E+00   0.00000000E+00
    9    9    0    2    2    0.00000000E+00   0.00000000E+00
    9   10    0    1    1    0.00000000E+00   0.00000000E+00
    9   10    0    2    1    0.00000000E+00   0.00000000E+00
    9   10    0    1    2    0.00000000E+00   0.00000000E+00
    9   10    0    2    2    0.00000000E+00   0.00000000E+00
   10    1    0    1    1    0.00000000E+00   0.00000000E+00
   10    1    0    2    1    0.00000000E+00   0.00000000E+00
   10    1    0    1    2    0.00000000E+00   0.00000000E+00
   10    1    0    2    2    0.00000000E+00   0.00000000E+00
   10    2    0    1    1    0.00000000E+00   0.00000000E+00
   10    2    0    2    1    0.00000000E+00   0.00000000E+00
   10    2    0    1    2    0.00000000E+00   0.00000000E+00
   10    2    0    2    2    0.00000000E+00   0.00000000E+00
   10    3    0    1    1    0.00000000E+00   0.00000000E+00
   10    3    0    2    1    0.00000000E+00   0.00000000E+00
   10    3    0    1    2    0.00000000E+00   0.00000000E+00
   10    3    0    2    2    0.00000000E+00   0.00000000E+00
   10    4    0    1    1    0.00000000E+00   0.00000000E+00
   10    4    0    2    1    0.00000000E+00   0.00000000E+00
   10    4    0    1    2    0.00000000E+00   0.00000000E+00
   10    4    0    2    2    0.00000000E+00   0.00000000E+00
   10    5    0    1    1    0.00000000E+00   0.00000000E+00
   10    5    0    2    1    0.00000000E+00   0.00000000E+00
   10    5    0    1    2    0.00000000E+00   0.00000000E+00
   10    5    0    2    2    0.00000000E+00   0.00000000E+00
   10    6    0    1    1    0.00000000E+00   0.00000000E+00
   10    6    0    2    1    0.00000000E+00   0.00000000E+00
   10    6    0    1    2    0.00000000E+00   0.00000000E+00
   10    6    0    2    2    0.00000000E+00   0.00000000E+00
   10    7    0    1    1    0.00000000E+00   0.00000000E+00
   10    7    0    2    1    0.00000000E+00   0.00000000E+00
   10    7    0    1    2    0.00000000E+00   0.00000000E+00
   10    7    0    2    2    0.00000000E+00   0.00000000E+00
   10    8    0    1    1    0.00000000E+00   0.00000000E+00
   10    8    0    2    1    0.00000000E+00   0.00000000E+00
   10    8    0    1    2    0.00000000E+00   0.00000000E+00
   10    8    0    2    2    0.00000000E+00   0.00000000E+00
   10    9    0    1    1    0.00000000E+00   0.00000000E+00
   10    9    0    2    1    0.00000000E+00   0.00000000E+00
   10    9    0    1    2    0.00000000E+00   0.00000000E+00
   10    9    0    2    2    0.00000000E+00   0.00000000E+00
   11    3    0    1    1    0.00000000E+00   0.00000000E+00
   11    3    0    2    1    0.00000000E+00   0.00000000E+00
   11    3    0    1    2    0.00000000E+00   0.00000000E+00
   11    3    0    2    2    0.00000000E+00   0.00000000E+00
   11    4    0    1    1    0.00000000E+00   0.00000000E+00
   11    4    0    2    1    0.00000000E+00   0.00000000E+00
   11    4    0    1    2    0.00000000E+00   0.00000000E+00
   11    4    0    2    2    0.00000000E+00   0.00000000E+00
   11    5    0    1    1    0.00000000E+00   0.00000000E+00
   11    5    0    2    1    0.00000000E+00   0.00000000E+00
   11    5    0    1    2    0.00000000E+00   0.00000000E+00
   11    5    0    2    2    0.00000000E+00   0.00000000E+00
   11    6    0    1    1    0.00000000E+00   0.00000000E+00
   11    6    0    2    1    0.00000000E+00   0.00000000E+00
   11    6    0    1    2    0.00000000E+00   0.00000000E+00
   11    6    0    2    2    0.00000000E+00   0.00000000E+00
   11    7    0    1    1    0.00000000E+00   0.00000000E+00
   11    7    0    2    1    0.00000000E+00   0.00000000E+00
   11    7    0    1    2    0.00000000E+00   0.00000000E+00
   11    7    0    2    2    0.00000000E+00   0.00000000E+00
   11    8    0    1    1    0.00000000E+00   0.00000000E+00
   11    8    0    2    1    0.00000000E+00   0.00000000E+00
   11    8    0    1    2    0.00000000E+00   0.00000000E+00
   11    8    0    2    2    0.00000000E+00   0.00000000E+00
   12    5    0    1    1    0.00000000E+00   0.00000000E+00
   12    5    0    2    1    0.00000000E+00   0.00000000E+00
   12    5    0    1    2    0.00000000E+00   0.00000000E+00
   12    5    0    2    2    0.00000000E+00   0.00000000E+00
   12    6    0    1    1    0.00000000E+00   0.00000000E+00
   12    6    0    2    1    0.00000000E+00   0.00000000E+00
   12    6    0    1    2    0.00000000E+00   0.00000000E+00
   12    6    0    2    2    0.00000000E+00   0.00000000E+00
   12    7    0    1    1    0.00000000E+00   0.00000000E+00
   12    7    0    2    1    0.00000000E+00   0.00000000E+00
   12    7    0    1    2    0.00000000E+00   0.00000000E+00
   12    7    0    2    2    0.00000000E+00   0.00000000E+00

