File written on 17Jan2024 at 14:27:53 

calc_only_A  :  F

begin real_lattice
   2.4349998   0.0000000   0.0000000
  -1.2174999   2.1087717   0.0000000
   0.0000000   0.0000000   9.7399993
end real_lattice

begin recip_lattice
   2.5803638   1.4897737   0.0000000
   0.0000000   2.9795474   0.0000000
   0.0000000   0.0000000   0.6450909
end recip_lattice

begin kpoints
   361
    0.00000000    0.00000000    0.00000000
    0.00000000    0.05263158    0.00000000
    0.00000000    0.10526316    0.00000000
    0.00000000    0.15789474    0.00000000
    0.00000000    0.21052632    0.00000000
    0.00000000    0.26315789    0.00000000
    0.00000000    0.31578947    0.00000000
    0.00000000    0.36842105    0.00000000
    0.00000000    0.42105263    0.00000000
    0.00000000    0.47368421    0.00000000
    0.00000000    0.52631579    0.00000000
    0.00000000    0.57894737    0.00000000
    0.00000000    0.63157895    0.00000000
    0.00000000    0.68421053    0.00000000
    0.00000000    0.73684211    0.00000000
    0.00000000    0.78947368    0.00000000
    0.00000000    0.84210526    0.00000000
    0.00000000    0.89473684    0.00000000
    0.00000000    0.94736842    0.00000000
    0.05263158    0.00000000    0.00000000
    0.05263158    0.05263158    0.00000000
    0.05263158    0.10526316    0.00000000
    0.05263158    0.15789474    0.00000000
    0.05263158    0.21052632    0.00000000
    0.05263158    0.26315789    0.00000000
    0.05263158    0.31578947    0.00000000
    0.05263158    0.36842105    0.00000000
    0.05263158    0.42105263    0.00000000
    0.05263158    0.47368421    0.00000000
    0.05263158    0.52631579    0.00000000
    0.05263158    0.57894737    0.00000000
    0.05263158    0.63157895    0.00000000
    0.05263158    0.68421053    0.00000000
    0.05263158    0.73684211    0.00000000
    0.05263158    0.78947368    0.00000000
    0.05263158    0.84210526    0.00000000
    0.05263158    0.89473684    0.00000000
    0.05263158    0.94736842    0.00000000
    0.10526316    0.00000000    0.00000000
    0.10526316    0.05263158    0.00000000
    0.10526316    0.10526316    0.00000000
    0.10526316    0.15789474    0.00000000
    0.10526316    0.21052632    0.00000000
    0.10526316    0.26315789    0.00000000
    0.10526316    0.31578947    0.00000000
    0.10526316    0.36842105    0.00000000
    0.10526316    0.42105263    0.00000000
    0.10526316    0.47368421    0.00000000
    0.10526316    0.52631579    0.00000000
    0.10526316    0.57894737    0.00000000
    0.10526316    0.63157895    0.00000000
    0.10526316    0.68421053    0.00000000
    0.10526316    0.73684211    0.00000000
    0.10526316    0.78947368    0.00000000
    0.10526316    0.84210526    0.00000000
    0.10526316    0.89473684    0.00000000
    0.10526316    0.94736842    0.00000000
    0.15789474    0.00000000    0.00000000
    0.15789474    0.05263158    0.00000000
    0.15789474    0.10526316    0.00000000
    0.15789474    0.15789474    0.00000000
    0.15789474    0.21052632    0.00000000
    0.15789474    0.26315789    0.00000000
    0.15789474    0.31578947    0.00000000
    0.15789474    0.36842105    0.00000000
    0.15789474    0.42105263    0.00000000
    0.15789474    0.47368421    0.00000000
    0.15789474    0.52631579    0.00000000
    0.15789474    0.57894737    0.00000000
    0.15789474    0.63157895    0.00000000
    0.15789474    0.68421053    0.00000000
    0.15789474    0.73684211    0.00000000
    0.15789474    0.78947368    0.00000000
    0.15789474    0.84210526    0.00000000
    0.15789474    0.89473684    0.00000000
    0.15789474    0.94736842    0.00000000
    0.21052632    0.00000000    0.00000000
    0.21052632    0.05263158    0.00000000
    0.21052632    0.10526316    0.00000000
    0.21052632    0.15789474    0.00000000
    0.21052632    0.21052632    0.00000000
    0.21052632    0.26315789    0.00000000
    0.21052632    0.31578947    0.00000000
    0.21052632    0.36842105    0.00000000
    0.21052632    0.42105263    0.00000000
    0.21052632    0.47368421    0.00000000
    0.21052632    0.52631579    0.00000000
    0.21052632    0.57894737    0.00000000
    0.21052632    0.63157895    0.00000000
    0.21052632    0.68421053    0.00000000
    0.21052632    0.73684211    0.00000000
    0.21052632    0.78947368    0.00000000
    0.21052632    0.84210526    0.00000000
    0.21052632    0.89473684    0.00000000
    0.21052632    0.94736842    0.00000000
    0.26315789    0.00000000    0.00000000
    0.26315789    0.05263158    0.00000000
    0.26315789    0.10526316    0.00000000
    0.26315789    0.15789474    0.00000000
    0.26315789    0.21052632    0.00000000
    0.26315789    0.26315789    0.00000000
    0.26315789    0.31578947    0.00000000
    0.26315789    0.36842105    0.00000000
    0.26315789    0.42105263    0.00000000
    0.26315789    0.47368421    0.00000000
    0.26315789    0.52631579    0.00000000
    0.26315789    0.57894737    0.00000000
    0.26315789    0.63157895    0.00000000
    0.26315789    0.68421053    0.00000000
    0.26315789    0.73684211    0.00000000
    0.26315789    0.78947368    0.00000000
    0.26315789    0.84210526    0.00000000
    0.26315789    0.89473684    0.00000000
    0.26315789    0.94736842    0.00000000
    0.31578947    0.00000000    0.00000000
    0.31578947    0.05263158    0.00000000
    0.31578947    0.10526316    0.00000000
    0.31578947    0.15789474    0.00000000
    0.31578947    0.21052632    0.00000000
    0.31578947    0.26315789    0.00000000
    0.31578947    0.31578947    0.00000000
    0.31578947    0.36842105    0.00000000
    0.31578947    0.42105263    0.00000000
    0.31578947    0.47368421    0.00000000
    0.31578947    0.52631579    0.00000000
    0.31578947    0.57894737    0.00000000
    0.31578947    0.63157895    0.00000000
    0.31578947    0.68421053    0.00000000
    0.31578947    0.73684211    0.00000000
    0.31578947    0.78947368    0.00000000
    0.31578947    0.84210526    0.00000000
    0.31578947    0.89473684    0.00000000
    0.31578947    0.94736842    0.00000000
    0.36842105    0.00000000    0.00000000
    0.36842105    0.05263158    0.00000000
    0.36842105    0.10526316    0.00000000
    0.36842105    0.15789474    0.00000000
    0.36842105    0.21052632    0.00000000
    0.36842105    0.26315789    0.00000000
    0.36842105    0.31578947    0.00000000
    0.36842105    0.36842105    0.00000000
    0.36842105    0.42105263    0.00000000
    0.36842105    0.47368421    0.00000000
    0.36842105    0.52631579    0.00000000
    0.36842105    0.57894737    0.00000000
    0.36842105    0.63157895    0.00000000
    0.36842105    0.68421053    0.00000000
    0.36842105    0.73684211    0.00000000
    0.36842105    0.78947368    0.00000000
    0.36842105    0.84210526    0.00000000
    0.36842105    0.89473684    0.00000000
    0.36842105    0.94736842    0.00000000
    0.42105263    0.00000000    0.00000000
    0.42105263    0.05263158    0.00000000
    0.42105263    0.10526316    0.00000000
    0.42105263    0.15789474    0.00000000
    0.42105263    0.21052632    0.00000000
    0.42105263    0.26315789    0.00000000
    0.42105263    0.31578947    0.00000000
    0.42105263    0.36842105    0.00000000
    0.42105263    0.42105263    0.00000000
    0.42105263    0.47368421    0.00000000
    0.42105263    0.52631579    0.00000000
    0.42105263    0.57894737    0.00000000
    0.42105263    0.63157895    0.00000000
    0.42105263    0.68421053    0.00000000
    0.42105263    0.73684211    0.00000000
    0.42105263    0.78947368    0.00000000
    0.42105263    0.84210526    0.00000000
    0.42105263    0.89473684    0.00000000
    0.42105263    0.94736842    0.00000000
    0.47368421    0.00000000    0.00000000
    0.47368421    0.05263158    0.00000000
    0.47368421    0.10526316    0.00000000
    0.47368421    0.15789474    0.00000000
    0.47368421    0.21052632    0.00000000
    0.47368421    0.26315789    0.00000000
    0.47368421    0.31578947    0.00000000
    0.47368421    0.36842105    0.00000000
    0.47368421    0.42105263    0.00000000
    0.47368421    0.47368421    0.00000000
    0.47368421    0.52631579    0.00000000
    0.47368421    0.57894737    0.00000000
    0.47368421    0.63157895    0.00000000
    0.47368421    0.68421053    0.00000000
    0.47368421    0.73684211    0.00000000
    0.47368421    0.78947368    0.00000000
    0.47368421    0.84210526    0.00000000
    0.47368421    0.89473684    0.00000000
    0.47368421    0.94736842    0.00000000
    0.52631579    0.00000000    0.00000000
    0.52631579    0.05263158    0.00000000
    0.52631579    0.10526316    0.00000000
    0.52631579    0.15789474    0.00000000
    0.52631579    0.21052632    0.00000000
    0.52631579    0.26315789    0.00000000
    0.52631579    0.31578947    0.00000000
    0.52631579    0.36842105    0.00000000
    0.52631579    0.42105263    0.00000000
    0.52631579    0.47368421    0.00000000
    0.52631579    0.52631579    0.00000000
    0.52631579    0.57894737    0.00000000
    0.52631579    0.63157895    0.00000000
    0.52631579    0.68421053    0.00000000
    0.52631579    0.73684211    0.00000000
    0.52631579    0.78947368    0.00000000
    0.52631579    0.84210526    0.00000000
    0.52631579    0.89473684    0.00000000
    0.52631579    0.94736842    0.00000000
    0.57894737    0.00000000    0.00000000
    0.57894737    0.05263158    0.00000000
    0.57894737    0.10526316    0.00000000
    0.57894737    0.15789474    0.00000000
    0.57894737    0.21052632    0.00000000
    0.57894737    0.26315789    0.00000000
    0.57894737    0.31578947    0.00000000
    0.57894737    0.36842105    0.00000000
    0.57894737    0.42105263    0.00000000
    0.57894737    0.47368421    0.00000000
    0.57894737    0.52631579    0.00000000
    0.57894737    0.57894737    0.00000000
    0.57894737    0.63157895    0.00000000
    0.57894737    0.68421053    0.00000000
    0.57894737    0.73684211    0.00000000
    0.57894737    0.78947368    0.00000000
    0.57894737    0.84210526    0.00000000
    0.57894737    0.89473684    0.00000000
    0.57894737    0.94736842    0.00000000
    0.63157895    0.00000000    0.00000000
    0.63157895    0.05263158    0.00000000
    0.63157895    0.10526316    0.00000000
    0.63157895    0.15789474    0.00000000
    0.63157895    0.21052632    0.00000000
    0.63157895    0.26315789    0.00000000
    0.63157895    0.31578947    0.00000000
    0.63157895    0.36842105    0.00000000
    0.63157895    0.42105263    0.00000000
    0.63157895    0.47368421    0.00000000
    0.63157895    0.52631579    0.00000000
    0.63157895    0.57894737    0.00000000
    0.63157895    0.63157895    0.00000000
    0.63157895    0.68421053    0.00000000
    0.63157895    0.73684211    0.00000000
    0.63157895    0.78947368    0.00000000
    0.63157895    0.84210526    0.00000000
    0.63157895    0.89473684    0.00000000
    0.63157895    0.94736842    0.00000000
    0.68421053    0.00000000    0.00000000
    0.68421053    0.05263158    0.00000000
    0.68421053    0.10526316    0.00000000
    0.68421053    0.15789474    0.00000000
    0.68421053    0.21052632    0.00000000
    0.68421053    0.26315789    0.00000000
    0.68421053    0.31578947    0.00000000
    0.68421053    0.36842105    0.00000000
    0.68421053    0.42105263    0.00000000
    0.68421053    0.47368421    0.00000000
    0.68421053    0.52631579    0.00000000
    0.68421053    0.57894737    0.00000000
    0.68421053    0.63157895    0.00000000
    0.68421053    0.68421053    0.00000000
    0.68421053    0.73684211    0.00000000
    0.68421053    0.78947368    0.00000000
    0.68421053    0.84210526    0.00000000
    0.68421053    0.89473684    0.00000000
    0.68421053    0.94736842    0.00000000
    0.73684211    0.00000000    0.00000000
    0.73684211    0.05263158    0.00000000
    0.73684211    0.10526316    0.00000000
    0.73684211    0.15789474    0.00000000
    0.73684211    0.21052632    0.00000000
    0.73684211    0.26315789    0.00000000
    0.73684211    0.31578947    0.00000000
    0.73684211    0.36842105    0.00000000
    0.73684211    0.42105263    0.00000000
    0.73684211    0.47368421    0.00000000
    0.73684211    0.52631579    0.00000000
    0.73684211    0.57894737    0.00000000
    0.73684211    0.63157895    0.00000000
    0.73684211    0.68421053    0.00000000
    0.73684211    0.73684211    0.00000000
    0.73684211    0.78947368    0.00000000
    0.73684211    0.84210526    0.00000000
    0.73684211    0.89473684    0.00000000
    0.73684211    0.94736842    0.00000000
    0.78947368    0.00000000    0.00000000
    0.78947368    0.05263158    0.00000000
    0.78947368    0.10526316    0.00000000
    0.78947368    0.15789474    0.00000000
    0.78947368    0.21052632    0.00000000
    0.78947368    0.26315789    0.00000000
    0.78947368    0.31578947    0.00000000
    0.78947368    0.36842105    0.00000000
    0.78947368    0.42105263    0.00000000
    0.78947368    0.47368421    0.00000000
    0.78947368    0.52631579    0.00000000
    0.78947368    0.57894737    0.00000000
    0.78947368    0.63157895    0.00000000
    0.78947368    0.68421053    0.00000000
    0.78947368    0.73684211    0.00000000
    0.78947368    0.78947368    0.00000000
    0.78947368    0.84210526    0.00000000
    0.78947368    0.89473684    0.00000000
    0.78947368    0.94736842    0.00000000
    0.84210526    0.00000000    0.00000000
    0.84210526    0.05263158    0.00000000
    0.84210526    0.10526316    0.00000000
    0.84210526    0.15789474    0.00000000
    0.84210526    0.21052632    0.00000000
    0.84210526    0.26315789    0.00000000
    0.84210526    0.31578947    0.00000000
    0.84210526    0.36842105    0.00000000
    0.84210526    0.42105263    0.00000000
    0.84210526    0.47368421    0.00000000
    0.84210526    0.52631579    0.00000000
    0.84210526    0.57894737    0.00000000
    0.84210526    0.63157895    0.00000000
    0.84210526    0.68421053    0.00000000
    0.84210526    0.73684211    0.00000000
    0.84210526    0.78947368    0.00000000
    0.84210526    0.84210526    0.00000000
    0.84210526    0.89473684    0.00000000
    0.84210526    0.94736842    0.00000000
    0.89473684    0.00000000    0.00000000
    0.89473684    0.05263158    0.00000000
    0.89473684    0.10526316    0.00000000
    0.89473684    0.15789474    0.00000000
    0.89473684    0.21052632    0.00000000
    0.89473684    0.26315789    0.00000000
    0.89473684    0.31578947    0.00000000
    0.89473684    0.36842105    0.00000000
    0.89473684    0.42105263    0.00000000
    0.89473684    0.47368421    0.00000000
    0.89473684    0.52631579    0.00000000
    0.89473684    0.57894737    0.00000000
    0.89473684    0.63157895    0.00000000
    0.89473684    0.68421053    0.00000000
    0.89473684    0.73684211    0.00000000
    0.89473684    0.78947368    0.00000000
    0.89473684    0.84210526    0.00000000
    0.89473684    0.89473684    0.00000000
    0.89473684    0.94736842    0.00000000
    0.94736842    0.00000000    0.00000000
    0.94736842    0.05263158    0.00000000
    0.94736842    0.10526316    0.00000000
    0.94736842    0.15789474    0.00000000
    0.94736842    0.21052632    0.00000000
    0.94736842    0.26315789    0.00000000
    0.94736842    0.31578947    0.00000000
    0.94736842    0.36842105    0.00000000
    0.94736842    0.42105263    0.00000000
    0.94736842    0.47368421    0.00000000
    0.94736842    0.52631579    0.00000000
    0.94736842    0.57894737    0.00000000
    0.94736842    0.63157895    0.00000000
    0.94736842    0.68421053    0.00000000
    0.94736842    0.73684211    0.00000000
    0.94736842    0.78947368    0.00000000
    0.94736842    0.84210526    0.00000000
    0.94736842    0.89473684    0.00000000
    0.94736842    0.94736842    0.00000000
end kpoints

begin projections
     2
   0.66667    0.33333    0.00000     1  1  1
    0.0000000  0.0000000  1.0000000   1.0000000  0.0000000  0.0000000    1.00
   0.33333    0.66667    0.00000     1  1  1
    0.0000000  0.0000000  1.0000000   1.0000000  0.0000000  0.0000000    1.00
end projections

begin nnkpts
   8
     1     2      0   0   0
     1    20      0   0   0
     1    19      0  -1   0
     1    38      0  -1   0
     1   343     -1   0   0
     1   344     -1   0   0
     1     1      0   0   1
     1     1      0   0  -1
     2     1      0   0   0
     2     3      0   0   0
     2    20      0   0   0
     2    21      0   0   0
     2   344     -1   0   0
     2   345     -1   0   0
     2     2      0   0   1
     2     2      0   0  -1
     3     2      0   0   0
     3     4      0   0   0
     3    21      0   0   0
     3    22      0   0   0
     3   345     -1   0   0
     3   346     -1   0   0
     3     3      0   0   1
     3     3      0   0  -1
     4     3      0   0   0
     4     5      0   0   0
     4    22      0   0   0
     4    23      0   0   0
     4   346     -1   0   0
     4   347     -1   0   0
     4     4      0   0   1
     4     4      0   0  -1
     5     4      0   0   0
     5     6      0   0   0
     5    23      0   0   0
     5    24      0   0   0
     5   347     -1   0   0
     5   348     -1   0   0
     5     5      0   0   1
     5     5      0   0  -1
     6     5      0   0   0
     6     7      0   0   0
     6    24      0   0   0
     6    25      0   0   0
     6   348     -1   0   0
     6   349     -1   0   0
     6     6      0   0   1
     6     6      0   0  -1
     7     6      0   0   0
     7     8      0   0   0
     7    25      0   0   0
     7    26      0   0   0
     7   349     -1   0   0
     7   350     -1   0   0
     7     7      0   0   1
     7     7      0   0  -1
     8     7      0   0   0
     8     9      0   0   0
     8    26      0   0   0
     8    27      0   0   0
     8   350     -1   0   0
     8   351     -1   0   0
     8     8      0   0   1
     8     8      0   0  -1
     9     8      0   0   0
     9    10      0   0   0
     9    27      0   0   0
     9    28      0   0   0
     9   351     -1   0   0
     9   352     -1   0   0
     9     9      0   0   1
     9     9      0   0  -1
    10     9      0   0   0
    10    11      0   0   0
    10    28      0   0   0
    10    29      0   0   0
    10   352     -1   0   0
    10   353     -1   0   0
    10    10      0   0   1
    10    10      0   0  -1
    11    10      0   0   0
    11    12      0   0   0
    11    29      0   0   0
    11    30      0   0   0
    11   353     -1   0   0
    11   354     -1   0   0
    11    11      0   0   1
    11    11      0   0  -1
    12    11      0   0   0
    12    13      0   0   0
    12    30      0   0   0
    12    31      0   0   0
    12   354     -1   0   0
    12   355     -1   0   0
    12    12      0   0   1
    12    12      0   0  -1
    13    12      0   0   0
    13    14      0   0   0
    13    31      0   0   0
    13    32      0   0   0
    13   355     -1   0   0
    13   356     -1   0   0
    13    13      0   0   1
    13    13      0   0  -1
    14    13      0   0   0
    14    15      0   0   0
    14    32      0   0   0
    14    33      0   0   0
    14   356     -1   0   0
    14   357     -1   0   0
    14    14      0   0   1
    14    14      0   0  -1
    15    14      0   0   0
    15    16      0   0   0
    15    33      0   0   0
    15    34      0   0   0
    15   357     -1   0   0
    15   358     -1   0   0
    15    15      0   0   1
    15    15      0   0  -1
    16    15      0   0   0
    16    17      0   0   0
    16    34      0   0   0
    16    35      0   0   0
    16   358     -1   0   0
    16   359     -1   0   0
    16    16      0   0   1
    16    16      0   0  -1
    17    16      0   0   0
    17    18      0   0   0
    17    35      0   0   0
    17    36      0   0   0
    17   359     -1   0   0
    17   360     -1   0   0
    17    17      0   0   1
    17    17      0   0  -1
    18    17      0   0   0
    18    19      0   0   0
    18    36      0   0   0
    18    37      0   0   0
    18   360     -1   0   0
    18   361     -1   0   0
    18    18      0   0   1
    18    18      0   0  -1
    19    18      0   0   0
    19    37      0   0   0
    19    38      0   0   0
    19     1      0   1   0
    19   343     -1   1   0
    19   361     -1   0   0
    19    19      0   0   1
    19    19      0   0  -1
    20     1      0   0   0
    20     2      0   0   0
    20    21      0   0   0
    20    39      0   0   0
    20    38      0  -1   0
    20    57      0  -1   0
    20    20      0   0   1
    20    20      0   0  -1
    21     2      0   0   0
    21     3      0   0   0
    21    20      0   0   0
    21    22      0   0   0
    21    39      0   0   0
    21    40      0   0   0
    21    21      0   0   1
    21    21      0   0  -1
    22     3      0   0   0
    22     4      0   0   0
    22    21      0   0   0
    22    23      0   0   0
    22    40      0   0   0
    22    41      0   0   0
    22    22      0   0   1
    22    22      0   0  -1
    23     4      0   0   0
    23     5      0   0   0
    23    22      0   0   0
    23    24      0   0   0
    23    41      0   0   0
    23    42      0   0   0
    23    23      0   0   1
    23    23      0   0  -1
    24     5      0   0   0
    24     6      0   0   0
    24    23      0   0   0
    24    25      0   0   0
    24    42      0   0   0
    24    43      0   0   0
    24    24      0   0   1
    24    24      0   0  -1
    25     6      0   0   0
    25     7      0   0   0
    25    24      0   0   0
    25    26      0   0   0
    25    43      0   0   0
    25    44      0   0   0
    25    25      0   0   1
    25    25      0   0  -1
    26     7      0   0   0
    26     8      0   0   0
    26    25      0   0   0
    26    27      0   0   0
    26    44      0   0   0
    26    45      0   0   0
    26    26      0   0   1
    26    26      0   0  -1
    27     8      0   0   0
    27     9      0   0   0
    27    26      0   0   0
    27    28      0   0   0
    27    45      0   0   0
    27    46      0   0   0
    27    27      0   0   1
    27    27      0   0  -1
    28     9      0   0   0
    28    10      0   0   0
    28    27      0   0   0
    28    29      0   0   0
    28    46      0   0   0
    28    47      0   0   0
    28    28      0   0   1
    28    28      0   0  -1
    29    10      0   0   0
    29    11      0   0   0
    29    28      0   0   0
    29    30      0   0   0
    29    47      0   0   0
    29    48      0   0   0
    29    29      0   0   1
    29    29      0   0  -1
    30    11      0   0   0
    30    12      0   0   0
    30    29      0   0   0
    30    31      0   0   0
    30    48      0   0   0
    30    49      0   0   0
    30    30      0   0   1
    30    30      0   0  -1
    31    12      0   0   0
    31    13      0   0   0
    31    30      0   0   0
    31    32      0   0   0
    31    49      0   0   0
    31    50      0   0   0
    31    31      0   0   1
    31    31      0   0  -1
    32    13      0   0   0
    32    14      0   0   0
    32    31      0   0   0
    32    33      0   0   0
    32    50      0   0   0
    32    51      0   0   0
    32    32      0   0   1
    32    32      0   0  -1
    33    14      0   0   0
    33    15      0   0   0
    33    32      0   0   0
    33    34      0   0   0
    33    51      0   0   0
    33    52      0   0   0
    33    33      0   0   1
    33    33      0   0  -1
    34    15      0   0   0
    34    16      0   0   0
    34    33      0   0   0
    34    35      0   0   0
    34    52      0   0   0
    34    53      0   0   0
    34    34      0   0   1
    34    34      0   0  -1
    35    16      0   0   0
    35    17      0   0   0
    35    34      0   0   0
    35    36      0   0   0
    35    53      0   0   0
    35    54      0   0   0
    35    35      0   0   1
    35    35      0   0  -1
    36    17      0   0   0
    36    18      0   0   0
    36    35      0   0   0
    36    37      0   0   0
    36    54      0   0   0
    36    55      0   0   0
    36    36      0   0   1
    36    36      0   0  -1
    37    18      0   0   0
    37    19      0   0   0
    37    36      0   0   0
    37    38      0   0   0
    37    55      0   0   0
    37    56      0   0   0
    37    37      0   0   1
    37    37      0   0  -1
    38    19      0   0   0
    38    37      0   0   0
    38    56      0   0   0
    38    57      0   0   0
    38     1      0   1   0
    38    20      0   1   0
    38    38      0   0   1
    38    38      0   0  -1
    39    20      0   0   0
    39    21      0   0   0
    39    40      0   0   0
    39    58      0   0   0
    39    57      0  -1   0
    39    76      0  -1   0
    39    39      0   0   1
    39    39      0   0  -1
    40    21      0   0   0
    40    22      0   0   0
    40    39      0   0   0
    40    41      0   0   0
    40    58      0   0   0
    40    59      0   0   0
    40    40      0   0   1
    40    40      0   0  -1
    41    22      0   0   0
    41    23      0   0   0
    41    40      0   0   0
    41    42      0   0   0
    41    59      0   0   0
    41    60      0   0   0
    41    41      0   0   1
    41    41      0   0  -1
    42    23      0   0   0
    42    24      0   0   0
    42    41      0   0   0
    42    43      0   0   0
    42    60      0   0   0
    42    61      0   0   0
    42    42      0   0   1
    42    42      0   0  -1
    43    24      0   0   0
    43    25      0   0   0
    43    42      0   0   0
    43    44      0   0   0
    43    61      0   0   0
    43    62      0   0   0
    43    43      0   0   1
    43    43      0   0  -1
    44    25      0   0   0
    44    26      0   0   0
    44    43      0   0   0
    44    45      0   0   0
    44    62      0   0   0
    44    63      0   0   0
    44    44      0   0   1
    44    44      0   0  -1
    45    26      0   0   0
    45    27      0   0   0
    45    44      0   0   0
    45    46      0   0   0
    45    63      0   0   0
    45    64      0   0   0
    45    45      0   0   1
    45    45      0   0  -1
    46    27      0   0   0
    46    28      0   0   0
    46    45      0   0   0
    46    47      0   0   0
    46    64      0   0   0
    46    65      0   0   0
    46    46      0   0   1
    46    46      0   0  -1
    47    28      0   0   0
    47    29      0   0   0
    47    46      0   0   0
    47    48      0   0   0
    47    65      0   0   0
    47    66      0   0   0
    47    47      0   0   1
    47    47      0   0  -1
    48    29      0   0   0
    48    30      0   0   0
    48    47      0   0   0
    48    49      0   0   0
    48    66      0   0   0
    48    67      0   0   0
    48    48      0   0   1
    48    48      0   0  -1
    49    30      0   0   0
    49    31      0   0   0
    49    48      0   0   0
    49    50      0   0   0
    49    67      0   0   0
    49    68      0   0   0
    49    49      0   0   1
    49    49      0   0  -1
    50    31      0   0   0
    50    32      0   0   0
    50    49      0   0   0
    50    51      0   0   0
    50    68      0   0   0
    50    69      0   0   0
    50    50      0   0   1
    50    50      0   0  -1
    51    32      0   0   0
    51    33      0   0   0
    51    50      0   0   0
    51    52      0   0   0
    51    69      0   0   0
    51    70      0   0   0
    51    51      0   0   1
    51    51      0   0  -1
    52    33      0   0   0
    52    34      0   0   0
    52    51      0   0   0
    52    53      0   0   0
    52    70      0   0   0
    52    71      0   0   0
    52    52      0   0   1
    52    52      0   0  -1
    53    34      0   0   0
    53    35      0   0   0
    53    52      0   0   0
    53    54      0   0   0
    53    71      0   0   0
    53    72      0   0   0
    53    53      0   0   1
    53    53      0   0  -1
    54    35      0   0   0
    54    36      0   0   0
    54    53      0   0   0
    54    55      0   0   0
    54    72      0   0   0
    54    73      0   0   0
    54    54      0   0   1
    54    54      0   0  -1
    55    36      0   0   0
    55    37      0   0   0
    55    54      0   0   0
    55    56      0   0   0
    55    73      0   0   0
    55    74      0   0   0
    55    55      0   0   1
    55    55      0   0  -1
    56    37      0   0   0
    56    38      0   0   0
    56    55      0   0   0
    56    57      0   0   0
    56    74      0   0   0
    56    75      0   0   0
    56    56      0   0   1
    56    56      0   0  -1
    57    38      0   0   0
    57    56      0   0   0
    57    75      0   0   0
    57    76      0   0   0
    57    20      0   1   0
    57    39      0   1   0
    57    57      0   0   1
    57    57      0   0  -1
    58    39      0   0   0
    58    40      0   0   0
    58    59      0   0   0
    58    77      0   0   0
    58    76      0  -1   0
    58    95      0  -1   0
    58    58      0   0   1
    58    58      0   0  -1
    59    40      0   0   0
    59    41      0   0   0
    59    58      0   0   0
    59    60      0   0   0
    59    77      0   0   0
    59    78      0   0   0
    59    59      0   0   1
    59    59      0   0  -1
    60    41      0   0   0
    60    42      0   0   0
    60    59      0   0   0
    60    61      0   0   0
    60    78      0   0   0
    60    79      0   0   0
    60    60      0   0   1
    60    60      0   0  -1
    61    42      0   0   0
    61    43      0   0   0
    61    60      0   0   0
    61    62      0   0   0
    61    79      0   0   0
    61    80      0   0   0
    61    61      0   0   1
    61    61      0   0  -1
    62    43      0   0   0
    62    44      0   0   0
    62    61      0   0   0
    62    63      0   0   0
    62    80      0   0   0
    62    81      0   0   0
    62    62      0   0   1
    62    62      0   0  -1
    63    44      0   0   0
    63    45      0   0   0
    63    62      0   0   0
    63    64      0   0   0
    63    81      0   0   0
    63    82      0   0   0
    63    63      0   0   1
    63    63      0   0  -1
    64    45      0   0   0
    64    46      0   0   0
    64    63      0   0   0
    64    65      0   0   0
    64    82      0   0   0
    64    83      0   0   0
    64    64      0   0   1
    64    64      0   0  -1
    65    46      0   0   0
    65    47      0   0   0
    65    64      0   0   0
    65    66      0   0   0
    65    83      0   0   0
    65    84      0   0   0
    65    65      0   0   1
    65    65      0   0  -1
    66    47      0   0   0
    66    48      0   0   0
    66    65      0   0   0
    66    67      0   0   0
    66    84      0   0   0
    66    85      0   0   0
    66    66      0   0   1
    66    66      0   0  -1
    67    48      0   0   0
    67    49      0   0   0
    67    66      0   0   0
    67    68      0   0   0
    67    85      0   0   0
    67    86      0   0   0
    67    67      0   0   1
    67    67      0   0  -1
    68    49      0   0   0
    68    50      0   0   0
    68    67      0   0   0
    68    69      0   0   0
    68    86      0   0   0
    68    87      0   0   0
    68    68      0   0   1
    68    68      0   0  -1
    69    50      0   0   0
    69    51      0   0   0
    69    68      0   0   0
    69    70      0   0   0
    69    87      0   0   0
    69    88      0   0   0
    69    69      0   0   1
    69    69      0   0  -1
    70    51      0   0   0
    70    52      0   0   0
    70    69      0   0   0
    70    71      0   0   0
    70    88      0   0   0
    70    89      0   0   0
    70    70      0   0   1
    70    70      0   0  -1
    71    52      0   0   0
    71    53      0   0   0
    71    70      0   0   0
    71    72      0   0   0
    71    89      0   0   0
    71    90      0   0   0
    71    71      0   0   1
    71    71      0   0  -1
    72    53      0   0   0
    72    54      0   0   0
    72    71      0   0   0
    72    73      0   0   0
    72    90      0   0   0
    72    91      0   0   0
    72    72      0   0   1
    72    72      0   0  -1
    73    54      0   0   0
    73    55      0   0   0
    73    72      0   0   0
    73    74      0   0   0
    73    91      0   0   0
    73    92      0   0   0
    73    73      0   0   1
    73    73      0   0  -1
    74    55      0   0   0
    74    56      0   0   0
    74    73      0   0   0
    74    75      0   0   0
    74    92      0   0   0
    74    93      0   0   0
    74    74      0   0   1
    74    74      0   0  -1
    75    56      0   0   0
    75    57      0   0   0
    75    74      0   0   0
    75    76      0   0   0
    75    93      0   0   0
    75    94      0   0   0
    75    75      0   0   1
    75    75      0   0  -1
    76    57      0   0   0
    76    75      0   0   0
    76    94      0   0   0
    76    95      0   0   0
    76    39      0   1   0
    76    58      0   1   0
    76    76      0   0   1
    76    76      0   0  -1
    77    58      0   0   0
    77    59      0   0   0
    77    78      0   0   0
    77    96      0   0   0
    77    95      0  -1   0
    77   114      0  -1   0
    77    77      0   0   1
    77    77      0   0  -1
    78    59      0   0   0
    78    60      0   0   0
    78    77      0   0   0
    78    79      0   0   0
    78    96      0   0   0
    78    97      0   0   0
    78    78      0   0   1
    78    78      0   0  -1
    79    60      0   0   0
    79    61      0   0   0
    79    78      0   0   0
    79    80      0   0   0
    79    97      0   0   0
    79    98      0   0   0
    79    79      0   0   1
    79    79      0   0  -1
    80    61      0   0   0
    80    62      0   0   0
    80    79      0   0   0
    80    81      0   0   0
    80    98      0   0   0
    80    99      0   0   0
    80    80      0   0   1
    80    80      0   0  -1
    81    62      0   0   0
    81    63      0   0   0
    81    80      0   0   0
    81    82      0   0   0
    81    99      0   0   0
    81   100      0   0   0
    81    81      0   0   1
    81    81      0   0  -1
    82    63      0   0   0
    82    64      0   0   0
    82    81      0   0   0
    82    83      0   0   0
    82   100      0   0   0
    82   101      0   0   0
    82    82      0   0   1
    82    82      0   0  -1
    83    64      0   0   0
    83    65      0   0   0
    83    82      0   0   0
    83    84      0   0   0
    83   101      0   0   0
    83   102      0   0   0
    83    83      0   0   1
    83    83      0   0  -1
    84    65      0   0   0
    84    66      0   0   0
    84    83      0   0   0
    84    85      0   0   0
    84   102      0   0   0
    84   103      0   0   0
    84    84      0   0   1
    84    84      0   0  -1
    85    66      0   0   0
    85    67      0   0   0
    85    84      0   0   0
    85    86      0   0   0
    85   103      0   0   0
    85   104      0   0   0
    85    85      0   0   1
    85    85      0   0  -1
    86    67      0   0   0
    86    68      0   0   0
    86    85      0   0   0
    86    87      0   0   0
    86   104      0   0   0
    86   105      0   0   0
    86    86      0   0   1
    86    86      0   0  -1
    87    68      0   0   0
    87    69      0   0   0
    87    86      0   0   0
    87    88      0   0   0
    87   105      0   0   0
    87   106      0   0   0
    87    87      0   0   1
    87    87      0   0  -1
    88    69      0   0   0
    88    70      0   0   0
    88    87      0   0   0
    88    89      0   0   0
    88   106      0   0   0
    88   107      0   0   0
    88    88      0   0   1
    88    88      0   0  -1
    89    70      0   0   0
    89    71      0   0   0
    89    88      0   0   0
    89    90      0   0   0
    89   107      0   0   0
    89   108      0   0   0
    89    89      0   0   1
    89    89      0   0  -1
    90    71      0   0   0
    90    72      0   0   0
    90    89      0   0   0
    90    91      0   0   0
    90   108      0   0   0
    90   109      0   0   0
    90    90      0   0   1
    90    90      0   0  -1
    91    72      0   0   0
    91    73      0   0   0
    91    90      0   0   0
    91    92      0   0   0
    91   109      0   0   0
    91   110      0   0   0
    91    91      0   0   1
    91    91      0   0  -1
    92    73      0   0   0
    92    74      0   0   0
    92    91      0   0   0
    92    93      0   0   0
    92   110      0   0   0
    92   111      0   0   0
    92    92      0   0   1
    92    92      0   0  -1
    93    74      0   0   0
    93    75      0   0   0
    93    92      0   0   0
    93    94      0   0   0
    93   111      0   0   0
    93   112      0   0   0
    93    93      0   0   1
    93    93      0   0  -1
    94    75      0   0   0
    94    76      0   0   0
    94    93      0   0   0
    94    95      0   0   0
    94   112      0   0   0
    94   113      0   0   0
    94    94      0   0   1
    94    94      0   0  -1
    95    76      0   0   0
    95    94      0   0   0
    95   113      0   0   0
    95   114      0   0   0
    95    58      0   1   0
    95    77      0   1   0
    95    95      0   0   1
    95    95      0   0  -1
    96    77      0   0   0
    96    78      0   0   0
    96    97      0   0   0
    96   115      0   0   0
    96   114      0  -1   0
    96   133      0  -1   0
    96    96      0   0   1
    96    96      0   0  -1
    97    78      0   0   0
    97    79      0   0   0
    97    96      0   0   0
    97    98      0   0   0
    97   115      0   0   0
    97   116      0   0   0
    97    97      0   0   1
    97    97      0   0  -1
    98    79      0   0   0
    98    80      0   0   0
    98    97      0   0   0
    98    99      0   0   0
    98   116      0   0   0
    98   117      0   0   0
    98    98      0   0   1
    98    98      0   0  -1
    99    80      0   0   0
    99    81      0   0   0
    99    98      0   0   0
    99   100      0   0   0
    99   117      0   0   0
    99   118      0   0   0
    99    99      0   0   1
    99    99      0   0  -1
   100    81      0   0   0
   100    82      0   0   0
   100    99      0   0   0
   100   101      0   0   0
   100   118      0   0   0
   100   119      0   0   0
   100   100      0   0   1
   100   100      0   0  -1
   101    82      0   0   0
   101    83      0   0   0
   101   100      0   0   0
   101   102      0   0   0
   101   119      0   0   0
   101   120      0   0   0
   101   101      0   0   1
   101   101      0   0  -1
   102    83      0   0   0
   102    84      0   0   0
   102   101      0   0   0
   102   103      0   0   0
   102   120      0   0   0
   102   121      0   0   0
   102   102      0   0   1
   102   102      0   0  -1
   103    84      0   0   0
   103    85      0   0   0
   103   102      0   0   0
   103   104      0   0   0
   103   121      0   0   0
   103   122      0   0   0
   103   103      0   0   1
   103   103      0   0  -1
   104    85      0   0   0
   104    86      0   0   0
   104   103      0   0   0
   104   105      0   0   0
   104   122      0   0   0
   104   123      0   0   0
   104   104      0   0   1
   104   104      0   0  -1
   105    86      0   0   0
   105    87      0   0   0
   105   104      0   0   0
   105   106      0   0   0
   105   123      0   0   0
   105   124      0   0   0
   105   105      0   0   1
   105   105      0   0  -1
   106    87      0   0   0
   106    88      0   0   0
   106   105      0   0   0
   106   107      0   0   0
   106   124      0   0   0
   106   125      0   0   0
   106   106      0   0   1
   106   106      0   0  -1
   107    88      0   0   0
   107    89      0   0   0
   107   106      0   0   0
   107   108      0   0   0
   107   125      0   0   0
   107   126      0   0   0
   107   107      0   0   1
   107   107      0   0  -1
   108    89      0   0   0
   108    90      0   0   0
   108   107      0   0   0
   108   109      0   0   0
   108   126      0   0   0
   108   127      0   0   0
   108   108      0   0   1
   108   108      0   0  -1
   109    90      0   0   0
   109    91      0   0   0
   109   108      0   0   0
   109   110      0   0   0
   109   127      0   0   0
   109   128      0   0   0
   109   109      0   0   1
   109   109      0   0  -1
   110    91      0   0   0
   110    92      0   0   0
   110   109      0   0   0
   110   111      0   0   0
   110   128      0   0   0
   110   129      0   0   0
   110   110      0   0   1
   110   110      0   0  -1
   111    92      0   0   0
   111    93      0   0   0
   111   110      0   0   0
   111   112      0   0   0
   111   129      0   0   0
   111   130      0   0   0
   111   111      0   0   1
   111   111      0   0  -1
   112    93      0   0   0
   112    94      0   0   0
   112   111      0   0   0
   112   113      0   0   0
   112   130      0   0   0
   112   131      0   0   0
   112   112      0   0   1
   112   112      0   0  -1
   113    94      0   0   0
   113    95      0   0   0
   113   112      0   0   0
   113   114      0   0   0
   113   131      0   0   0
   113   132      0   0   0
   113   113      0   0   1
   113   113      0   0  -1
   114    95      0   0   0
   114   113      0   0   0
   114   132      0   0   0
   114   133      0   0   0
   114    77      0   1   0
   114    96      0   1   0
   114   114      0   0   1
   114   114      0   0  -1
   115    96      0   0   0
   115    97      0   0   0
   115   116      0   0   0
   115   134      0   0   0
   115   133      0  -1   0
   115   152      0  -1   0
   115   115      0   0   1
   115   115      0   0  -1
   116    97      0   0   0
   116    98      0   0   0
   116   115      0   0   0
   116   117      0   0   0
   116   134      0   0   0
   116   135      0   0   0
   116   116      0   0   1
   116   116      0   0  -1
   117    98      0   0   0
   117    99      0   0   0
   117   116      0   0   0
   117   118      0   0   0
   117   135      0   0   0
   117   136      0   0   0
   117   117      0   0   1
   117   117      0   0  -1
   118    99      0   0   0
   118   100      0   0   0
   118   117      0   0   0
   118   119      0   0   0
   118   136      0   0   0
   118   137      0   0   0
   118   118      0   0   1
   118   118      0   0  -1
   119   100      0   0   0
   119   101      0   0   0
   119   118      0   0   0
   119   120      0   0   0
   119   137      0   0   0
   119   138      0   0   0
   119   119      0   0   1
   119   119      0   0  -1
   120   101      0   0   0
   120   102      0   0   0
   120   119      0   0   0
   120   121      0   0   0
   120   138      0   0   0
   120   139      0   0   0
   120   120      0   0   1
   120   120      0   0  -1
   121   102      0   0   0
   121   103      0   0   0
   121   120      0   0   0
   121   122      0   0   0
   121   139      0   0   0
   121   140      0   0   0
   121   121      0   0   1
   121   121      0   0  -1
   122   103      0   0   0
   122   104      0   0   0
   122   121      0   0   0
   122   123      0   0   0
   122   140      0   0   0
   122   141      0   0   0
   122   122      0   0   1
   122   122      0   0  -1
   123   104      0   0   0
   123   105      0   0   0
   123   122      0   0   0
   123   124      0   0   0
   123   141      0   0   0
   123   142      0   0   0
   123   123      0   0   1
   123   123      0   0  -1
   124   105      0   0   0
   124   106      0   0   0
   124   123      0   0   0
   124   125      0   0   0
   124   142      0   0   0
   124   143      0   0   0
   124   124      0   0   1
   124   124      0   0  -1
   125   106      0   0   0
   125   107      0   0   0
   125   124      0   0   0
   125   126      0   0   0
   125   143      0   0   0
   125   144      0   0   0
   125   125      0   0   1
   125   125      0   0  -1
   126   107      0   0   0
   126   108      0   0   0
   126   125      0   0   0
   126   127      0   0   0
   126   144      0   0   0
   126   145      0   0   0
   126   126      0   0   1
   126   126      0   0  -1
   127   108      0   0   0
   127   109      0   0   0
   127   126      0   0   0
   127   128      0   0   0
   127   145      0   0   0
   127   146      0   0   0
   127   127      0   0   1
   127   127      0   0  -1
   128   109      0   0   0
   128   110      0   0   0
   128   127      0   0   0
   128   129      0   0   0
   128   146      0   0   0
   128   147      0   0   0
   128   128      0   0   1
   128   128      0   0  -1
   129   110      0   0   0
   129   111      0   0   0
   129   128      0   0   0
   129   130      0   0   0
   129   147      0   0   0
   129   148      0   0   0
   129   129      0   0   1
   129   129      0   0  -1
   130   111      0   0   0
   130   112      0   0   0
   130   129      0   0   0
   130   131      0   0   0
   130   148      0   0   0
   130   149      0   0   0
   130   130      0   0   1
   130   130      0   0  -1
   131   112      0   0   0
   131   113      0   0   0
   131   130      0   0   0
   131   132      0   0   0
   131   149      0   0   0
   131   150      0   0   0
   131   131      0   0   1
   131   131      0   0  -1
   132   113      0   0   0
   132   114      0   0   0
   132   131      0   0   0
   132   133      0   0   0
   132   150      0   0   0
   132   151      0   0   0
   132   132      0   0   1
   132   132      0   0  -1
   133   114      0   0   0
   133   132      0   0   0
   133   151      0   0   0
   133   152      0   0   0
   133    96      0   1   0
   133   115      0   1   0
   133   133      0   0   1
   133   133      0   0  -1
   134   115      0   0   0
   134   116      0   0   0
   134   135      0   0   0
   134   153      0   0   0
   134   152      0  -1   0
   134   171      0  -1   0
   134   134      0   0   1
   134   134      0   0  -1
   135   116      0   0   0
   135   117      0   0   0
   135   134      0   0   0
   135   136      0   0   0
   135   153      0   0   0
   135   154      0   0   0
   135   135      0   0   1
   135   135      0   0  -1
   136   117      0   0   0
   136   118      0   0   0
   136   135      0   0   0
   136   137      0   0   0
   136   154      0   0   0
   136   155      0   0   0
   136   136      0   0   1
   136   136      0   0  -1
   137   118      0   0   0
   137   119      0   0   0
   137   136      0   0   0
   137   138      0   0   0
   137   155      0   0   0
   137   156      0   0   0
   137   137      0   0   1
   137   137      0   0  -1
   138   119      0   0   0
   138   120      0   0   0
   138   137      0   0   0
   138   139      0   0   0
   138   156      0   0   0
   138   157      0   0   0
   138   138      0   0   1
   138   138      0   0  -1
   139   120      0   0   0
   139   121      0   0   0
   139   138      0   0   0
   139   140      0   0   0
   139   157      0   0   0
   139   158      0   0   0
   139   139      0   0   1
   139   139      0   0  -1
   140   121      0   0   0
   140   122      0   0   0
   140   139      0   0   0
   140   141      0   0   0
   140   158      0   0   0
   140   159      0   0   0
   140   140      0   0   1
   140   140      0   0  -1
   141   122      0   0   0
   141   123      0   0   0
   141   140      0   0   0
   141   142      0   0   0
   141   159      0   0   0
   141   160      0   0   0
   141   141      0   0   1
   141   141      0   0  -1
   142   123      0   0   0
   142   124      0   0   0
   142   141      0   0   0
   142   143      0   0   0
   142   160      0   0   0
   142   161      0   0   0
   142   142      0   0   1
   142   142      0   0  -1
   143   124      0   0   0
   143   125      0   0   0
   143   142      0   0   0
   143   144      0   0   0
   143   161      0   0   0
   143   162      0   0   0
   143   143      0   0   1
   143   143      0   0  -1
   144   125      0   0   0
   144   126      0   0   0
   144   143      0   0   0
   144   145      0   0   0
   144   162      0   0   0
   144   163      0   0   0
   144   144      0   0   1
   144   144      0   0  -1
   145   126      0   0   0
   145   127      0   0   0
   145   144      0   0   0
   145   146      0   0   0
   145   163      0   0   0
   145   164      0   0   0
   145   145      0   0   1
   145   145      0   0  -1
   146   127      0   0   0
   146   128      0   0   0
   146   145      0   0   0
   146   147      0   0   0
   146   164      0   0   0
   146   165      0   0   0
   146   146      0   0   1
   146   146      0   0  -1
   147   128      0   0   0
   147   129      0   0   0
   147   146      0   0   0
   147   148      0   0   0
   147   165      0   0   0
   147   166      0   0   0
   147   147      0   0   1
   147   147      0   0  -1
   148   129      0   0   0
   148   130      0   0   0
   148   147      0   0   0
   148   149      0   0   0
   148   166      0   0   0
   148   167      0   0   0
   148   148      0   0   1
   148   148      0   0  -1
   149   130      0   0   0
   149   131      0   0   0
   149   148      0   0   0
   149   150      0   0   0
   149   167      0   0   0
   149   168      0   0   0
   149   149      0   0   1
   149   149      0   0  -1
   150   131      0   0   0
   150   132      0   0   0
   150   149      0   0   0
   150   151      0   0   0
   150   168      0   0   0
   150   169      0   0   0
   150   150      0   0   1
   150   150      0   0  -1
   151   132      0   0   0
   151   133      0   0   0
   151   150      0   0   0
   151   152      0   0   0
   151   169      0   0   0
   151   170      0   0   0
   151   151      0   0   1
   151   151      0   0  -1
   152   133      0   0   0
   152   151      0   0   0
   152   170      0   0   0
   152   171      0   0   0
   152   115      0   1   0
   152   134      0   1   0
   152   152      0   0   1
   152   152      0   0  -1
   153   134      0   0   0
   153   135      0   0   0
   153   154      0   0   0
   153   172      0   0   0
   153   171      0  -1   0
   153   190      0  -1   0
   153   153      0   0   1
   153   153      0   0  -1
   154   135      0   0   0
   154   136      0   0   0
   154   153      0   0   0
   154   155      0   0   0
   154   172      0   0   0
   154   173      0   0   0
   154   154      0   0   1
   154   154      0   0  -1
   155   136      0   0   0
   155   137      0   0   0
   155   154      0   0   0
   155   156      0   0   0
   155   173      0   0   0
   155   174      0   0   0
   155   155      0   0   1
   155   155      0   0  -1
   156   137      0   0   0
   156   138      0   0   0
   156   155      0   0   0
   156   157      0   0   0
   156   174      0   0   0
   156   175      0   0   0
   156   156      0   0   1
   156   156      0   0  -1
   157   138      0   0   0
   157   139      0   0   0
   157   156      0   0   0
   157   158      0   0   0
   157   175      0   0   0
   157   176      0   0   0
   157   157      0   0   1
   157   157      0   0  -1
   158   139      0   0   0
   158   140      0   0   0
   158   157      0   0   0
   158   159      0   0   0
   158   176      0   0   0
   158   177      0   0   0
   158   158      0   0   1
   158   158      0   0  -1
   159   140      0   0   0
   159   141      0   0   0
   159   158      0   0   0
   159   160      0   0   0
   159   177      0   0   0
   159   178      0   0   0
   159   159      0   0   1
   159   159      0   0  -1
   160   141      0   0   0
   160   142      0   0   0
   160   159      0   0   0
   160   161      0   0   0
   160   178      0   0   0
   160   179      0   0   0
   160   160      0   0   1
   160   160      0   0  -1
   161   142      0   0   0
   161   143      0   0   0
   161   160      0   0   0
   161   162      0   0   0
   161   179      0   0   0
   161   180      0   0   0
   161   161      0   0   1
   161   161      0   0  -1
   162   143      0   0   0
   162   144      0   0   0
   162   161      0   0   0
   162   163      0   0   0
   162   180      0   0   0
   162   181      0   0   0
   162   162      0   0   1
   162   162      0   0  -1
   163   144      0   0   0
   163   145      0   0   0
   163   162      0   0   0
   163   164      0   0   0
   163   181      0   0   0
   163   182      0   0   0
   163   163      0   0   1
   163   163      0   0  -1
   164   145      0   0   0
   164   146      0   0   0
   164   163      0   0   0
   164   165      0   0   0
   164   182      0   0   0
   164   183      0   0   0
   164   164      0   0   1
   164   164      0   0  -1
   165   146      0   0   0
   165   147      0   0   0
   165   164      0   0   0
   165   166      0   0   0
   165   183      0   0   0
   165   184      0   0   0
   165   165      0   0   1
   165   165      0   0  -1
   166   147      0   0   0
   166   148      0   0   0
   166   165      0   0   0
   166   167      0   0   0
   166   184      0   0   0
   166   185      0   0   0
   166   166      0   0   1
   166   166      0   0  -1
   167   148      0   0   0
   167   149      0   0   0
   167   166      0   0   0
   167   168      0   0   0
   167   185      0   0   0
   167   186      0   0   0
   167   167      0   0   1
   167   167      0   0  -1
   168   149      0   0   0
   168   150      0   0   0
   168   167      0   0   0
   168   169      0   0   0
   168   186      0   0   0
   168   187      0   0   0
   168   168      0   0   1
   168   168      0   0  -1
   169   150      0   0   0
   169   151      0   0   0
   169   168      0   0   0
   169   170      0   0   0
   169   187      0   0   0
   169   188      0   0   0
   169   169      0   0   1
   169   169      0   0  -1
   170   151      0   0   0
   170   152      0   0   0
   170   169      0   0   0
   170   171      0   0   0
   170   188      0   0   0
   170   189      0   0   0
   170   170      0   0   1
   170   170      0   0  -1
   171   152      0   0   0
   171   170      0   0   0
   171   189      0   0   0
   171   190      0   0   0
   171   134      0   1   0
   171   153      0   1   0
   171   171      0   0   1
   171   171      0   0  -1
   172   153      0   0   0
   172   154      0   0   0
   172   173      0   0   0
   172   191      0   0   0
   172   190      0  -1   0
   172   209      0  -1   0
   172   172      0   0   1
   172   172      0   0  -1
   173   154      0   0   0
   173   155      0   0   0
   173   172      0   0   0
   173   174      0   0   0
   173   191      0   0   0
   173   192      0   0   0
   173   173      0   0   1
   173   173      0   0  -1
   174   155      0   0   0
   174   156      0   0   0
   174   173      0   0   0
   174   175      0   0   0
   174   192      0   0   0
   174   193      0   0   0
   174   174      0   0   1
   174   174      0   0  -1
   175   156      0   0   0
   175   157      0   0   0
   175   174      0   0   0
   175   176      0   0   0
   175   193      0   0   0
   175   194      0   0   0
   175   175      0   0   1
   175   175      0   0  -1
   176   157      0   0   0
   176   158      0   0   0
   176   175      0   0   0
   176   177      0   0   0
   176   194      0   0   0
   176   195      0   0   0
   176   176      0   0   1
   176   176      0   0  -1
   177   158      0   0   0
   177   159      0   0   0
   177   176      0   0   0
   177   178      0   0   0
   177   195      0   0   0
   177   196      0   0   0
   177   177      0   0   1
   177   177      0   0  -1
   178   159      0   0   0
   178   160      0   0   0
   178   177      0   0   0
   178   179      0   0   0
   178   196      0   0   0
   178   197      0   0   0
   178   178      0   0   1
   178   178      0   0  -1
   179   160      0   0   0
   179   161      0   0   0
   179   178      0   0   0
   179   180      0   0   0
   179   197      0   0   0
   179   198      0   0   0
   179   179      0   0   1
   179   179      0   0  -1
   180   161      0   0   0
   180   162      0   0   0
   180   179      0   0   0
   180   181      0   0   0
   180   198      0   0   0
   180   199      0   0   0
   180   180      0   0   1
   180   180      0   0  -1
   181   162      0   0   0
   181   163      0   0   0
   181   180      0   0   0
   181   182      0   0   0
   181   199      0   0   0
   181   200      0   0   0
   181   181      0   0   1
   181   181      0   0  -1
   182   163      0   0   0
   182   164      0   0   0
   182   181      0   0   0
   182   183      0   0   0
   182   200      0   0   0
   182   201      0   0   0
   182   182      0   0   1
   182   182      0   0  -1
   183   164      0   0   0
   183   165      0   0   0
   183   182      0   0   0
   183   184      0   0   0
   183   201      0   0   0
   183   202      0   0   0
   183   183      0   0   1
   183   183      0   0  -1
   184   165      0   0   0
   184   166      0   0   0
   184   183      0   0   0
   184   185      0   0   0
   184   202      0   0   0
   184   203      0   0   0
   184   184      0   0   1
   184   184      0   0  -1
   185   166      0   0   0
   185   167      0   0   0
   185   184      0   0   0
   185   186      0   0   0
   185   203      0   0   0
   185   204      0   0   0
   185   185      0   0   1
   185   185      0   0  -1
   186   167      0   0   0
   186   168      0   0   0
   186   185      0   0   0
   186   187      0   0   0
   186   204      0   0   0
   186   205      0   0   0
   186   186      0   0   1
   186   186      0   0  -1
   187   168      0   0   0
   187   169      0   0   0
   187   186      0   0   0
   187   188      0   0   0
   187   205      0   0   0
   187   206      0   0   0
   187   187      0   0   1
   187   187      0   0  -1
   188   169      0   0   0
   188   170      0   0   0
   188   187      0   0   0
   188   189      0   0   0
   188   206      0   0   0
   188   207      0   0   0
   188   188      0   0   1
   188   188      0   0  -1
   189   170      0   0   0
   189   171      0   0   0
   189   188      0   0   0
   189   190      0   0   0
   189   207      0   0   0
   189   208      0   0   0
   189   189      0   0   1
   189   189      0   0  -1
   190   171      0   0   0
   190   189      0   0   0
   190   208      0   0   0
   190   209      0   0   0
   190   153      0   1   0
   190   172      0   1   0
   190   190      0   0   1
   190   190      0   0  -1
   191   172      0   0   0
   191   173      0   0   0
   191   192      0   0   0
   191   210      0   0   0
   191   209      0  -1   0
   191   228      0  -1   0
   191   191      0   0   1
   191   191      0   0  -1
   192   173      0   0   0
   192   174      0   0   0
   192   191      0   0   0
   192   193      0   0   0
   192   210      0   0   0
   192   211      0   0   0
   192   192      0   0   1
   192   192      0   0  -1
   193   174      0   0   0
   193   175      0   0   0
   193   192      0   0   0
   193   194      0   0   0
   193   211      0   0   0
   193   212      0   0   0
   193   193      0   0   1
   193   193      0   0  -1
   194   175      0   0   0
   194   176      0   0   0
   194   193      0   0   0
   194   195      0   0   0
   194   212      0   0   0
   194   213      0   0   0
   194   194      0   0   1
   194   194      0   0  -1
   195   176      0   0   0
   195   177      0   0   0
   195   194      0   0   0
   195   196      0   0   0
   195   213      0   0   0
   195   214      0   0   0
   195   195      0   0   1
   195   195      0   0  -1
   196   177      0   0   0
   196   178      0   0   0
   196   195      0   0   0
   196   197      0   0   0
   196   214      0   0   0
   196   215      0   0   0
   196   196      0   0   1
   196   196      0   0  -1
   197   178      0   0   0
   197   179      0   0   0
   197   196      0   0   0
   197   198      0   0   0
   197   215      0   0   0
   197   216      0   0   0
   197   197      0   0   1
   197   197      0   0  -1
   198   179      0   0   0
   198   180      0   0   0
   198   197      0   0   0
   198   199      0   0   0
   198   216      0   0   0
   198   217      0   0   0
   198   198      0   0   1
   198   198      0   0  -1
   199   180      0   0   0
   199   181      0   0   0
   199   198      0   0   0
   199   200      0   0   0
   199   217      0   0   0
   199   218      0   0   0
   199   199      0   0   1
   199   199      0   0  -1
   200   181      0   0   0
   200   182      0   0   0
   200   199      0   0   0
   200   201      0   0   0
   200   218      0   0   0
   200   219      0   0   0
   200   200      0   0   1
   200   200      0   0  -1
   201   182      0   0   0
   201   183      0   0   0
   201   200      0   0   0
   201   202      0   0   0
   201   219      0   0   0
   201   220      0   0   0
   201   201      0   0   1
   201   201      0   0  -1
   202   183      0   0   0
   202   184      0   0   0
   202   201      0   0   0
   202   203      0   0   0
   202   220      0   0   0
   202   221      0   0   0
   202   202      0   0   1
   202   202      0   0  -1
   203   184      0   0   0
   203   185      0   0   0
   203   202      0   0   0
   203   204      0   0   0
   203   221      0   0   0
   203   222      0   0   0
   203   203      0   0   1
   203   203      0   0  -1
   204   185      0   0   0
   204   186      0   0   0
   204   203      0   0   0
   204   205      0   0   0
   204   222      0   0   0
   204   223      0   0   0
   204   204      0   0   1
   204   204      0   0  -1
   205   186      0   0   0
   205   187      0   0   0
   205   204      0   0   0
   205   206      0   0   0
   205   223      0   0   0
   205   224      0   0   0
   205   205      0   0   1
   205   205      0   0  -1
   206   187      0   0   0
   206   188      0   0   0
   206   205      0   0   0
   206   207      0   0   0
   206   224      0   0   0
   206   225      0   0   0
   206   206      0   0   1
   206   206      0   0  -1
   207   188      0   0   0
   207   189      0   0   0
   207   206      0   0   0
   207   208      0   0   0
   207   225      0   0   0
   207   226      0   0   0
   207   207      0   0   1
   207   207      0   0  -1
   208   189      0   0   0
   208   190      0   0   0
   208   207      0   0   0
   208   209      0   0   0
   208   226      0   0   0
   208   227      0   0   0
   208   208      0   0   1
   208   208      0   0  -1
   209   190      0   0   0
   209   208      0   0   0
   209   227      0   0   0
   209   228      0   0   0
   209   172      0   1   0
   209   191      0   1   0
   209   209      0   0   1
   209   209      0   0  -1
   210   191      0   0   0
   210   192      0   0   0
   210   211      0   0   0
   210   229      0   0   0
   210   228      0  -1   0
   210   247      0  -1   0
   210   210      0   0   1
   210   210      0   0  -1
   211   192      0   0   0
   211   193      0   0   0
   211   210      0   0   0
   211   212      0   0   0
   211   229      0   0   0
   211   230      0   0   0
   211   211      0   0   1
   211   211      0   0  -1
   212   193      0   0   0
   212   194      0   0   0
   212   211      0   0   0
   212   213      0   0   0
   212   230      0   0   0
   212   231      0   0   0
   212   212      0   0   1
   212   212      0   0  -1
   213   194      0   0   0
   213   195      0   0   0
   213   212      0   0   0
   213   214      0   0   0
   213   231      0   0   0
   213   232      0   0   0
   213   213      0   0   1
   213   213      0   0  -1
   214   195      0   0   0
   214   196      0   0   0
   214   213      0   0   0
   214   215      0   0   0
   214   232      0   0   0
   214   233      0   0   0
   214   214      0   0   1
   214   214      0   0  -1
   215   196      0   0   0
   215   197      0   0   0
   215   214      0   0   0
   215   216      0   0   0
   215   233      0   0   0
   215   234      0   0   0
   215   215      0   0   1
   215   215      0   0  -1
   216   197      0   0   0
   216   198      0   0   0
   216   215      0   0   0
   216   217      0   0   0
   216   234      0   0   0
   216   235      0   0   0
   216   216      0   0   1
   216   216      0   0  -1
   217   198      0   0   0
   217   199      0   0   0
   217   216      0   0   0
   217   218      0   0   0
   217   235      0   0   0
   217   236      0   0   0
   217   217      0   0   1
   217   217      0   0  -1
   218   199      0   0   0
   218   200      0   0   0
   218   217      0   0   0
   218   219      0   0   0
   218   236      0   0   0
   218   237      0   0   0
   218   218      0   0   1
   218   218      0   0  -1
   219   200      0   0   0
   219   201      0   0   0
   219   218      0   0   0
   219   220      0   0   0
   219   237      0   0   0
   219   238      0   0   0
   219   219      0   0   1
   219   219      0   0  -1
   220   201      0   0   0
   220   202      0   0   0
   220   219      0   0   0
   220   221      0   0   0
   220   238      0   0   0
   220   239      0   0   0
   220   220      0   0   1
   220   220      0   0  -1
   221   202      0   0   0
   221   203      0   0   0
   221   220      0   0   0
   221   222      0   0   0
   221   239      0   0   0
   221   240      0   0   0
   221   221      0   0   1
   221   221      0   0  -1
   222   203      0   0   0
   222   204      0   0   0
   222   221      0   0   0
   222   223      0   0   0
   222   240      0   0   0
   222   241      0   0   0
   222   222      0   0   1
   222   222      0   0  -1
   223   204      0   0   0
   223   205      0   0   0
   223   222      0   0   0
   223   224      0   0   0
   223   241      0   0   0
   223   242      0   0   0
   223   223      0   0   1
   223   223      0   0  -1
   224   205      0   0   0
   224   206      0   0   0
   224   223      0   0   0
   224   225      0   0   0
   224   242      0   0   0
   224   243      0   0   0
   224   224      0   0   1
   224   224      0   0  -1
   225   206      0   0   0
   225   207      0   0   0
   225   224      0   0   0
   225   226      0   0   0
   225   243      0   0   0
   225   244      0   0   0
   225   225      0   0   1
   225   225      0   0  -1
   226   207      0   0   0
   226   208      0   0   0
   226   225      0   0   0
   226   227      0   0   0
   226   244      0   0   0
   226   245      0   0   0
   226   226      0   0   1
   226   226      0   0  -1
   227   208      0   0   0
   227   209      0   0   0
   227   226      0   0   0
   227   228      0   0   0
   227   245      0   0   0
   227   246      0   0   0
   227   227      0   0   1
   227   227      0   0  -1
   228   209      0   0   0
   228   227      0   0   0
   228   246      0   0   0
   228   247      0   0   0
   228   191      0   1   0
   228   210      0   1   0
   228   228      0   0   1
   228   228      0   0  -1
   229   210      0   0   0
   229   211      0   0   0
   229   230      0   0   0
   229   248      0   0   0
   229   247      0  -1   0
   229   266      0  -1   0
   229   229      0   0   1
   229   229      0   0  -1
   230   211      0   0   0
   230   212      0   0   0
   230   229      0   0   0
   230   231      0   0   0
   230   248      0   0   0
   230   249      0   0   0
   230   230      0   0   1
   230   230      0   0  -1
   231   212      0   0   0
   231   213      0   0   0
   231   230      0   0   0
   231   232      0   0   0
   231   249      0   0   0
   231   250      0   0   0
   231   231      0   0   1
   231   231      0   0  -1
   232   213      0   0   0
   232   214      0   0   0
   232   231      0   0   0
   232   233      0   0   0
   232   250      0   0   0
   232   251      0   0   0
   232   232      0   0   1
   232   232      0   0  -1
   233   214      0   0   0
   233   215      0   0   0
   233   232      0   0   0
   233   234      0   0   0
   233   251      0   0   0
   233   252      0   0   0
   233   233      0   0   1
   233   233      0   0  -1
   234   215      0   0   0
   234   216      0   0   0
   234   233      0   0   0
   234   235      0   0   0
   234   252      0   0   0
   234   253      0   0   0
   234   234      0   0   1
   234   234      0   0  -1
   235   216      0   0   0
   235   217      0   0   0
   235   234      0   0   0
   235   236      0   0   0
   235   253      0   0   0
   235   254      0   0   0
   235   235      0   0   1
   235   235      0   0  -1
   236   217      0   0   0
   236   218      0   0   0
   236   235      0   0   0
   236   237      0   0   0
   236   254      0   0   0
   236   255      0   0   0
   236   236      0   0   1
   236   236      0   0  -1
   237   218      0   0   0
   237   219      0   0   0
   237   236      0   0   0
   237   238      0   0   0
   237   255      0   0   0
   237   256      0   0   0
   237   237      0   0   1
   237   237      0   0  -1
   238   219      0   0   0
   238   220      0   0   0
   238   237      0   0   0
   238   239      0   0   0
   238   256      0   0   0
   238   257      0   0   0
   238   238      0   0   1
   238   238      0   0  -1
   239   220      0   0   0
   239   221      0   0   0
   239   238      0   0   0
   239   240      0   0   0
   239   257      0   0   0
   239   258      0   0   0
   239   239      0   0   1
   239   239      0   0  -1
   240   221      0   0   0
   240   222      0   0   0
   240   239      0   0   0
   240   241      0   0   0
   240   258      0   0   0
   240   259      0   0   0
   240   240      0   0   1
   240   240      0   0  -1
   241   222      0   0   0
   241   223      0   0   0
   241   240      0   0   0
   241   242      0   0   0
   241   259      0   0   0
   241   260      0   0   0
   241   241      0   0   1
   241   241      0   0  -1
   242   223      0   0   0
   242   224      0   0   0
   242   241      0   0   0
   242   243      0   0   0
   242   260      0   0   0
   242   261      0   0   0
   242   242      0   0   1
   242   242      0   0  -1
   243   224      0   0   0
   243   225      0   0   0
   243   242      0   0   0
   243   244      0   0   0
   243   261      0   0   0
   243   262      0   0   0
   243   243      0   0   1
   243   243      0   0  -1
   244   225      0   0   0
   244   226      0   0   0
   244   243      0   0   0
   244   245      0   0   0
   244   262      0   0   0
   244   263      0   0   0
   244   244      0   0   1
   244   244      0   0  -1
   245   226      0   0   0
   245   227      0   0   0
   245   244      0   0   0
   245   246      0   0   0
   245   263      0   0   0
   245   264      0   0   0
   245   245      0   0   1
   245   245      0   0  -1
   246   227      0   0   0
   246   228      0   0   0
   246   245      0   0   0
   246   247      0   0   0
   246   264      0   0   0
   246   265      0   0   0
   246   246      0   0   1
   246   246      0   0  -1
   247   228      0   0   0
   247   246      0   0   0
   247   265      0   0   0
   247   266      0   0   0
   247   210      0   1   0
   247   229      0   1   0
   247   247      0   0   1
   247   247      0   0  -1
   248   229      0   0   0
   248   230      0   0   0
   248   249      0   0   0
   248   267      0   0   0
   248   266      0  -1   0
   248   285      0  -1   0
   248   248      0   0   1
   248   248      0   0  -1
   249   230      0   0   0
   249   231      0   0   0
   249   248      0   0   0
   249   250      0   0   0
   249   267      0   0   0
   249   268      0   0   0
   249   249      0   0   1
   249   249      0   0  -1
   250   231      0   0   0
   250   232      0   0   0
   250   249      0   0   0
   250   251      0   0   0
   250   268      0   0   0
   250   269      0   0   0
   250   250      0   0   1
   250   250      0   0  -1
   251   232      0   0   0
   251   233      0   0   0
   251   250      0   0   0
   251   252      0   0   0
   251   269      0   0   0
   251   270      0   0   0
   251   251      0   0   1
   251   251      0   0  -1
   252   233      0   0   0
   252   234      0   0   0
   252   251      0   0   0
   252   253      0   0   0
   252   270      0   0   0
   252   271      0   0   0
   252   252      0   0   1
   252   252      0   0  -1
   253   234      0   0   0
   253   235      0   0   0
   253   252      0   0   0
   253   254      0   0   0
   253   271      0   0   0
   253   272      0   0   0
   253   253      0   0   1
   253   253      0   0  -1
   254   235      0   0   0
   254   236      0   0   0
   254   253      0   0   0
   254   255      0   0   0
   254   272      0   0   0
   254   273      0   0   0
   254   254      0   0   1
   254   254      0   0  -1
   255   236      0   0   0
   255   237      0   0   0
   255   254      0   0   0
   255   256      0   0   0
   255   273      0   0   0
   255   274      0   0   0
   255   255      0   0   1
   255   255      0   0  -1
   256   237      0   0   0
   256   238      0   0   0
   256   255      0   0   0
   256   257      0   0   0
   256   274      0   0   0
   256   275      0   0   0
   256   256      0   0   1
   256   256      0   0  -1
   257   238      0   0   0
   257   239      0   0   0
   257   256      0   0   0
   257   258      0   0   0
   257   275      0   0   0
   257   276      0   0   0
   257   257      0   0   1
   257   257      0   0  -1
   258   239      0   0   0
   258   240      0   0   0
   258   257      0   0   0
   258   259      0   0   0
   258   276      0   0   0
   258   277      0   0   0
   258   258      0   0   1
   258   258      0   0  -1
   259   240      0   0   0
   259   241      0   0   0
   259   258      0   0   0
   259   260      0   0   0
   259   277      0   0   0
   259   278      0   0   0
   259   259      0   0   1
   259   259      0   0  -1
   260   241      0   0   0
   260   242      0   0   0
   260   259      0   0   0
   260   261      0   0   0
   260   278      0   0   0
   260   279      0   0   0
   260   260      0   0   1
   260   260      0   0  -1
   261   242      0   0   0
   261   243      0   0   0
   261   260      0   0   0
   261   262      0   0   0
   261   279      0   0   0
   261   280      0   0   0
   261   261      0   0   1
   261   261      0   0  -1
   262   243      0   0   0
   262   244      0   0   0
   262   261      0   0   0
   262   263      0   0   0
   262   280      0   0   0
   262   281      0   0   0
   262   262      0   0   1
   262   262      0   0  -1
   263   244      0   0   0
   263   245      0   0   0
   263   262      0   0   0
   263   264      0   0   0
   263   281      0   0   0
   263   282      0   0   0
   263   263      0   0   1
   263   263      0   0  -1
   264   245      0   0   0
   264   246      0   0   0
   264   263      0   0   0
   264   265      0   0   0
   264   282      0   0   0
   264   283      0   0   0
   264   264      0   0   1
   264   264      0   0  -1
   265   246      0   0   0
   265   247      0   0   0
   265   264      0   0   0
   265   266      0   0   0
   265   283      0   0   0
   265   284      0   0   0
   265   265      0   0   1
   265   265      0   0  -1
   266   247      0   0   0
   266   265      0   0   0
   266   284      0   0   0
   266   285      0   0   0
   266   229      0   1   0
   266   248      0   1   0
   266   266      0   0   1
   266   266      0   0  -1
   267   248      0   0   0
   267   249      0   0   0
   267   268      0   0   0
   267   286      0   0   0
   267   285      0  -1   0
   267   304      0  -1   0
   267   267      0   0   1
   267   267      0   0  -1
   268   249      0   0   0
   268   250      0   0   0
   268   267      0   0   0
   268   269      0   0   0
   268   286      0   0   0
   268   287      0   0   0
   268   268      0   0   1
   268   268      0   0  -1
   269   250      0   0   0
   269   251      0   0   0
   269   268      0   0   0
   269   270      0   0   0
   269   287      0   0   0
   269   288      0   0   0
   269   269      0   0   1
   269   269      0   0  -1
   270   251      0   0   0
   270   252      0   0   0
   270   269      0   0   0
   270   271      0   0   0
   270   288      0   0   0
   270   289      0   0   0
   270   270      0   0   1
   270   270      0   0  -1
   271   252      0   0   0
   271   253      0   0   0
   271   270      0   0   0
   271   272      0   0   0
   271   289      0   0   0
   271   290      0   0   0
   271   271      0   0   1
   271   271      0   0  -1
   272   253      0   0   0
   272   254      0   0   0
   272   271      0   0   0
   272   273      0   0   0
   272   290      0   0   0
   272   291      0   0   0
   272   272      0   0   1
   272   272      0   0  -1
   273   254      0   0   0
   273   255      0   0   0
   273   272      0   0   0
   273   274      0   0   0
   273   291      0   0   0
   273   292      0   0   0
   273   273      0   0   1
   273   273      0   0  -1
   274   255      0   0   0
   274   256      0   0   0
   274   273      0   0   0
   274   275      0   0   0
   274   292      0   0   0
   274   293      0   0   0
   274   274      0   0   1
   274   274      0   0  -1
   275   256      0   0   0
   275   257      0   0   0
   275   274      0   0   0
   275   276      0   0   0
   275   293      0   0   0
   275   294      0   0   0
   275   275      0   0   1
   275   275      0   0  -1
   276   257      0   0   0
   276   258      0   0   0
   276   275      0   0   0
   276   277      0   0   0
   276   294      0   0   0
   276   295      0   0   0
   276   276      0   0   1
   276   276      0   0  -1
   277   258      0   0   0
   277   259      0   0   0
   277   276      0   0   0
   277   278      0   0   0
   277   295      0   0   0
   277   296      0   0   0
   277   277      0   0   1
   277   277      0   0  -1
   278   259      0   0   0
   278   260      0   0   0
   278   277      0   0   0
   278   279      0   0   0
   278   296      0   0   0
   278   297      0   0   0
   278   278      0   0   1
   278   278      0   0  -1
   279   260      0   0   0
   279   261      0   0   0
   279   278      0   0   0
   279   280      0   0   0
   279   297      0   0   0
   279   298      0   0   0
   279   279      0   0   1
   279   279      0   0  -1
   280   261      0   0   0
   280   262      0   0   0
   280   279      0   0   0
   280   281      0   0   0
   280   298      0   0   0
   280   299      0   0   0
   280   280      0   0   1
   280   280      0   0  -1
   281   262      0   0   0
   281   263      0   0   0
   281   280      0   0   0
   281   282      0   0   0
   281   299      0   0   0
   281   300      0   0   0
   281   281      0   0   1
   281   281      0   0  -1
   282   263      0   0   0
   282   264      0   0   0
   282   281      0   0   0
   282   283      0   0   0
   282   300      0   0   0
   282   301      0   0   0
   282   282      0   0   1
   282   282      0   0  -1
   283   264      0   0   0
   283   265      0   0   0
   283   282      0   0   0
   283   284      0   0   0
   283   301      0   0   0
   283   302      0   0   0
   283   283      0   0   1
   283   283      0   0  -1
   284   265      0   0   0
   284   266      0   0   0
   284   283      0   0   0
   284   285      0   0   0
   284   302      0   0   0
   284   303      0   0   0
   284   284      0   0   1
   284   284      0   0  -1
   285   266      0   0   0
   285   284      0   0   0
   285   303      0   0   0
   285   304      0   0   0
   285   248      0   1   0
   285   267      0   1   0
   285   285      0   0   1
   285   285      0   0  -1
   286   267      0   0   0
   286   268      0   0   0
   286   287      0   0   0
   286   305      0   0   0
   286   304      0  -1   0
   286   323      0  -1   0
   286   286      0   0   1
   286   286      0   0  -1
   287   268      0   0   0
   287   269      0   0   0
   287   286      0   0   0
   287   288      0   0   0
   287   305      0   0   0
   287   306      0   0   0
   287   287      0   0   1
   287   287      0   0  -1
   288   269      0   0   0
   288   270      0   0   0
   288   287      0   0   0
   288   289      0   0   0
   288   306      0   0   0
   288   307      0   0   0
   288   288      0   0   1
   288   288      0   0  -1
   289   270      0   0   0
   289   271      0   0   0
   289   288      0   0   0
   289   290      0   0   0
   289   307      0   0   0
   289   308      0   0   0
   289   289      0   0   1
   289   289      0   0  -1
   290   271      0   0   0
   290   272      0   0   0
   290   289      0   0   0
   290   291      0   0   0
   290   308      0   0   0
   290   309      0   0   0
   290   290      0   0   1
   290   290      0   0  -1
   291   272      0   0   0
   291   273      0   0   0
   291   290      0   0   0
   291   292      0   0   0
   291   309      0   0   0
   291   310      0   0   0
   291   291      0   0   1
   291   291      0   0  -1
   292   273      0   0   0
   292   274      0   0   0
   292   291      0   0   0
   292   293      0   0   0
   292   310      0   0   0
   292   311      0   0   0
   292   292      0   0   1
   292   292      0   0  -1
   293   274      0   0   0
   293   275      0   0   0
   293   292      0   0   0
   293   294      0   0   0
   293   311      0   0   0
   293   312      0   0   0
   293   293      0   0   1
   293   293      0   0  -1
   294   275      0   0   0
   294   276      0   0   0
   294   293      0   0   0
   294   295      0   0   0
   294   312      0   0   0
   294   313      0   0   0
   294   294      0   0   1
   294   294      0   0  -1
   295   276      0   0   0
   295   277      0   0   0
   295   294      0   0   0
   295   296      0   0   0
   295   313      0   0   0
   295   314      0   0   0
   295   295      0   0   1
   295   295      0   0  -1
   296   277      0   0   0
   296   278      0   0   0
   296   295      0   0   0
   296   297      0   0   0
   296   314      0   0   0
   296   315      0   0   0
   296   296      0   0   1
   296   296      0   0  -1
   297   278      0   0   0
   297   279      0   0   0
   297   296      0   0   0
   297   298      0   0   0
   297   315      0   0   0
   297   316      0   0   0
   297   297      0   0   1
   297   297      0   0  -1
   298   279      0   0   0
   298   280      0   0   0
   298   297      0   0   0
   298   299      0   0   0
   298   316      0   0   0
   298   317      0   0   0
   298   298      0   0   1
   298   298      0   0  -1
   299   280      0   0   0
   299   281      0   0   0
   299   298      0   0   0
   299   300      0   0   0
   299   317      0   0   0
   299   318      0   0   0
   299   299      0   0   1
   299   299      0   0  -1
   300   281      0   0   0
   300   282      0   0   0
   300   299      0   0   0
   300   301      0   0   0
   300   318      0   0   0
   300   319      0   0   0
   300   300      0   0   1
   300   300      0   0  -1
   301   282      0   0   0
   301   283      0   0   0
   301   300      0   0   0
   301   302      0   0   0
   301   319      0   0   0
   301   320      0   0   0
   301   301      0   0   1
   301   301      0   0  -1
   302   283      0   0   0
   302   284      0   0   0
   302   301      0   0   0
   302   303      0   0   0
   302   320      0   0   0
   302   321      0   0   0
   302   302      0   0   1
   302   302      0   0  -1
   303   284      0   0   0
   303   285      0   0   0
   303   302      0   0   0
   303   304      0   0   0
   303   321      0   0   0
   303   322      0   0   0
   303   303      0   0   1
   303   303      0   0  -1
   304   285      0   0   0
   304   303      0   0   0
   304   322      0   0   0
   304   323      0   0   0
   304   267      0   1   0
   304   286      0   1   0
   304   304      0   0   1
   304   304      0   0  -1
   305   286      0   0   0
   305   287      0   0   0
   305   306      0   0   0
   305   324      0   0   0
   305   323      0  -1   0
   305   342      0  -1   0
   305   305      0   0   1
   305   305      0   0  -1
   306   287      0   0   0
   306   288      0   0   0
   306   305      0   0   0
   306   307      0   0   0
   306   324      0   0   0
   306   325      0   0   0
   306   306      0   0   1
   306   306      0   0  -1
   307   288      0   0   0
   307   289      0   0   0
   307   306      0   0   0
   307   308      0   0   0
   307   325      0   0   0
   307   326      0   0   0
   307   307      0   0   1
   307   307      0   0  -1
   308   289      0   0   0
   308   290      0   0   0
   308   307      0   0   0
   308   309      0   0   0
   308   326      0   0   0
   308   327      0   0   0
   308   308      0   0   1
   308   308      0   0  -1
   309   290      0   0   0
   309   291      0   0   0
   309   308      0   0   0
   309   310      0   0   0
   309   327      0   0   0
   309   328      0   0   0
   309   309      0   0   1
   309   309      0   0  -1
   310   291      0   0   0
   310   292      0   0   0
   310   309      0   0   0
   310   311      0   0   0
   310   328      0   0   0
   310   329      0   0   0
   310   310      0   0   1
   310   310      0   0  -1
   311   292      0   0   0
   311   293      0   0   0
   311   310      0   0   0
   311   312      0   0   0
   311   329      0   0   0
   311   330      0   0   0
   311   311      0   0   1
   311   311      0   0  -1
   312   293      0   0   0
   312   294      0   0   0
   312   311      0   0   0
   312   313      0   0   0
   312   330      0   0   0
   312   331      0   0   0
   312   312      0   0   1
   312   312      0   0  -1
   313   294      0   0   0
   313   295      0   0   0
   313   312      0   0   0
   313   314      0   0   0
   313   331      0   0   0
   313   332      0   0   0
   313   313      0   0   1
   313   313      0   0  -1
   314   295      0   0   0
   314   296      0   0   0
   314   313      0   0   0
   314   315      0   0   0
   314   332      0   0   0
   314   333      0   0   0
   314   314      0   0   1
   314   314      0   0  -1
   315   296      0   0   0
   315   297      0   0   0
   315   314      0   0   0
   315   316      0   0   0
   315   333      0   0   0
   315   334      0   0   0
   315   315      0   0   1
   315   315      0   0  -1
   316   297      0   0   0
   316   298      0   0   0
   316   315      0   0   0
   316   317      0   0   0
   316   334      0   0   0
   316   335      0   0   0
   316   316      0   0   1
   316   316      0   0  -1
   317   298      0   0   0
   317   299      0   0   0
   317   316      0   0   0
   317   318      0   0   0
   317   335      0   0   0
   317   336      0   0   0
   317   317      0   0   1
   317   317      0   0  -1
   318   299      0   0   0
   318   300      0   0   0
   318   317      0   0   0
   318   319      0   0   0
   318   336      0   0   0
   318   337      0   0   0
   318   318      0   0   1
   318   318      0   0  -1
   319   300      0   0   0
   319   301      0   0   0
   319   318      0   0   0
   319   320      0   0   0
   319   337      0   0   0
   319   338      0   0   0
   319   319      0   0   1
   319   319      0   0  -1
   320   301      0   0   0
   320   302      0   0   0
   320   319      0   0   0
   320   321      0   0   0
   320   338      0   0   0
   320   339      0   0   0
   320   320      0   0   1
   320   320      0   0  -1
   321   302      0   0   0
   321   303      0   0   0
   321   320      0   0   0
   321   322      0   0   0
   321   339      0   0   0
   321   340      0   0   0
   321   321      0   0   1
   321   321      0   0  -1
   322   303      0   0   0
   322   304      0   0   0
   322   321      0   0   0
   322   323      0   0   0
   322   340      0   0   0
   322   341      0   0   0
   322   322      0   0   1
   322   322      0   0  -1
   323   304      0   0   0
   323   322      0   0   0
   323   341      0   0   0
   323   342      0   0   0
   323   286      0   1   0
   323   305      0   1   0
   323   323      0   0   1
   323   323      0   0  -1
   324   305      0   0   0
   324   306      0   0   0
   324   325      0   0   0
   324   343      0   0   0
   324   342      0  -1   0
   324   361      0  -1   0
   324   324      0   0   1
   324   324      0   0  -1
   325   306      0   0   0
   325   307      0   0   0
   325   324      0   0   0
   325   326      0   0   0
   325   343      0   0   0
   325   344      0   0   0
   325   325      0   0   1
   325   325      0   0  -1
   326   307      0   0   0
   326   308      0   0   0
   326   325      0   0   0
   326   327      0   0   0
   326   344      0   0   0
   326   345      0   0   0
   326   326      0   0   1
   326   326      0   0  -1
   327   308      0   0   0
   327   309      0   0   0
   327   326      0   0   0
   327   328      0   0   0
   327   345      0   0   0
   327   346      0   0   0
   327   327      0   0   1
   327   327      0   0  -1
   328   309      0   0   0
   328   310      0   0   0
   328   327      0   0   0
   328   329      0   0   0
   328   346      0   0   0
   328   347      0   0   0
   328   328      0   0   1
   328   328      0   0  -1
   329   310      0   0   0
   329   311      0   0   0
   329   328      0   0   0
   329   330      0   0   0
   329   347      0   0   0
   329   348      0   0   0
   329   329      0   0   1
   329   329      0   0  -1
   330   311      0   0   0
   330   312      0   0   0
   330   329      0   0   0
   330   331      0   0   0
   330   348      0   0   0
   330   349      0   0   0
   330   330      0   0   1
   330   330      0   0  -1
   331   312      0   0   0
   331   313      0   0   0
   331   330      0   0   0
   331   332      0   0   0
   331   349      0   0   0
   331   350      0   0   0
   331   331      0   0   1
   331   331      0   0  -1
   332   313      0   0   0
   332   314      0   0   0
   332   331      0   0   0
   332   333      0   0   0
   332   350      0   0   0
   332   351      0   0   0
   332   332      0   0   1
   332   332      0   0  -1
   333   314      0   0   0
   333   315      0   0   0
   333   332      0   0   0
   333   334      0   0   0
   333   351      0   0   0
   333   352      0   0   0
   333   333      0   0   1
   333   333      0   0  -1
   334   315      0   0   0
   334   316      0   0   0
   334   333      0   0   0
   334   335      0   0   0
   334   352      0   0   0
   334   353      0   0   0
   334   334      0   0   1
   334   334      0   0  -1
   335   316      0   0   0
   335   317      0   0   0
   335   334      0   0   0
   335   336      0   0   0
   335   353      0   0   0
   335   354      0   0   0
   335   335      0   0   1
   335   335      0   0  -1
   336   317      0   0   0
   336   318      0   0   0
   336   335      0   0   0
   336   337      0   0   0
   336   354      0   0   0
   336   355      0   0   0
   336   336      0   0   1
   336   336      0   0  -1
   337   318      0   0   0
   337   319      0   0   0
   337   336      0   0   0
   337   338      0   0   0
   337   355      0   0   0
   337   356      0   0   0
   337   337      0   0   1
   337   337      0   0  -1
   338   319      0   0   0
   338   320      0   0   0
   338   337      0   0   0
   338   339      0   0   0
   338   356      0   0   0
   338   357      0   0   0
   338   338      0   0   1
   338   338      0   0  -1
   339   320      0   0   0
   339   321      0   0   0
   339   338      0   0   0
   339   340      0   0   0
   339   357      0   0   0
   339   358      0   0   0
   339   339      0   0   1
   339   339      0   0  -1
   340   321      0   0   0
   340   322      0   0   0
   340   339      0   0   0
   340   341      0   0   0
   340   358      0   0   0
   340   359      0   0   0
   340   340      0   0   1
   340   340      0   0  -1
   341   322      0   0   0
   341   323      0   0   0
   341   340      0   0   0
   341   342      0   0   0
   341   359      0   0   0
   341   360      0   0   0
   341   341      0   0   1
   341   341      0   0  -1
   342   323      0   0   0
   342   341      0   0   0
   342   360      0   0   0
   342   361      0   0   0
   342   305      0   1   0
   342   324      0   1   0
   342   342      0   0   1
   342   342      0   0  -1
   343   324      0   0   0
   343   325      0   0   0
   343   344      0   0   0
   343     1      1   0   0
   343    19      1  -1   0
   343   361      0  -1   0
   343   343      0   0   1
   343   343      0   0  -1
   344   325      0   0   0
   344   326      0   0   0
   344   343      0   0   0
   344   345      0   0   0
   344     1      1   0   0
   344     2      1   0   0
   344   344      0   0   1
   344   344      0   0  -1
   345   326      0   0   0
   345   327      0   0   0
   345   344      0   0   0
   345   346      0   0   0
   345     2      1   0   0
   345     3      1   0   0
   345   345      0   0   1
   345   345      0   0  -1
   346   327      0   0   0
   346   328      0   0   0
   346   345      0   0   0
   346   347      0   0   0
   346     3      1   0   0
   346     4      1   0   0
   346   346      0   0   1
   346   346      0   0  -1
   347   328      0   0   0
   347   329      0   0   0
   347   346      0   0   0
   347   348      0   0   0
   347     4      1   0   0
   347     5      1   0   0
   347   347      0   0   1
   347   347      0   0  -1
   348   329      0   0   0
   348   330      0   0   0
   348   347      0   0   0
   348   349      0   0   0
   348     5      1   0   0
   348     6      1   0   0
   348   348      0   0   1
   348   348      0   0  -1
   349   330      0   0   0
   349   331      0   0   0
   349   348      0   0   0
   349   350      0   0   0
   349     6      1   0   0
   349     7      1   0   0
   349   349      0   0   1
   349   349      0   0  -1
   350   331      0   0   0
   350   332      0   0   0
   350   349      0   0   0
   350   351      0   0   0
   350     7      1   0   0
   350     8      1   0   0
   350   350      0   0   1
   350   350      0   0  -1
   351   332      0   0   0
   351   333      0   0   0
   351   350      0   0   0
   351   352      0   0   0
   351     8      1   0   0
   351     9      1   0   0
   351   351      0   0   1
   351   351      0   0  -1
   352   333      0   0   0
   352   334      0   0   0
   352   351      0   0   0
   352   353      0   0   0
   352     9      1   0   0
   352    10      1   0   0
   352   352      0   0   1
   352   352      0   0  -1
   353   334      0   0   0
   353   335      0   0   0
   353   352      0   0   0
   353   354      0   0   0
   353    10      1   0   0
   353    11      1   0   0
   353   353      0   0   1
   353   353      0   0  -1
   354   335      0   0   0
   354   336      0   0   0
   354   353      0   0   0
   354   355      0   0   0
   354    11      1   0   0
   354    12      1   0   0
   354   354      0   0   1
   354   354      0   0  -1
   355   336      0   0   0
   355   337      0   0   0
   355   354      0   0   0
   355   356      0   0   0
   355    12      1   0   0
   355    13      1   0   0
   355   355      0   0   1
   355   355      0   0  -1
   356   337      0   0   0
   356   338      0   0   0
   356   355      0   0   0
   356   357      0   0   0
   356    13      1   0   0
   356    14      1   0   0
   356   356      0   0   1
   356   356      0   0  -1
   357   338      0   0   0
   357   339      0   0   0
   357   356      0   0   0
   357   358      0   0   0
   357    14      1   0   0
   357    15      1   0   0
   357   357      0   0   1
   357   357      0   0  -1
   358   339      0   0   0
   358   340      0   0   0
   358   357      0   0   0
   358   359      0   0   0
   358    15      1   0   0
   358    16      1   0   0
   358   358      0   0   1
   358   358      0   0  -1
   359   340      0   0   0
   359   341      0   0   0
   359   358      0   0   0
   359   360      0   0   0
   359    16      1   0   0
   359    17      1   0   0
   359   359      0   0   1
   359   359      0   0  -1
   360   341      0   0   0
   360   342      0   0   0
   360   359      0   0   0
   360   361      0   0   0
   360    17      1   0   0
   360    18      1   0   0
   360   360      0   0   1
   360   360      0   0  -1
   361   342      0   0   0
   361   360      0   0   0
   361    18      1   0   0
   361    19      1   0   0
   361   324      0   1   0
   361   343      0   1   0
   361   361      0   0   1
   361   361      0   0  -1
end nnkpts

begin exclude_bands
   0
end exclude_bands
