"""
=== Bond length ||R|| dependence of the Frobenius norm of the operator ||O(R)|| ===
-
- ||R - Rmin|| [Ang]  ||O(R)|| [eV]  max(|O(R)|) [eV]
    - ||O(R)|| ~ ||O(Rmin)|| exp(-(||R|| - ||Rmin||) / τ).
    - ||R||       : Bond length (the 2-norm of lattice vector).
    - ||O(R)||    : The Frobenius norm of the operator.
    - ||Rmin||    : Minimum bond length.
    - ||O(Rmin)|| : The Frobenius norm of the operator at R = Rmin.
    - τ           : The decay length [Ang].
"""
# created by pw2cw 
# written on 12Aug2025 at 17:58:58
# ||Rmin||    = 0.00000000   [eV] 
# ||O(Rmin)|| = 4.25207031   [eV] 
# τ           = 6.33258578   [Ang] 
  0.00000000E+00   4.25207031E+00   3.00666775E+00  
  2.43500000E+00   5.21708548E-01   2.83783701E-01  
  2.43500000E+00   5.21708548E-01   2.83783701E-01  
  2.43500000E+00   3.02513561E+00   3.00667926E+00  
  2.43500000E+00   3.02513561E+00   3.00667926E+00  
  2.43500000E+00   3.02513561E+00   3.00667926E+00  
  2.43500000E+00   3.02513561E+00   3.00667926E+00  
  4.21754372E+00   8.19291652E-02   5.67238870E-02  
  4.21754372E+00   8.19291652E-02   5.67238870E-02  
  4.21754372E+00   8.19291652E-02   5.67238870E-02  
  4.21754372E+00   8.19291652E-02   5.67238870E-02  
  4.21754372E+00   2.96259405E-01   2.83795117E-01  
  4.21754372E+00   2.96259405E-01   2.83795117E-01  
  4.87000000E+00   3.10440145E-02   2.04045967E-02  
  4.87000000E+00   3.10440145E-02   2.04045967E-02  
  4.87000000E+00   3.31298966E-02   2.04046012E-02  
  4.87000000E+00   3.31298966E-02   2.04046012E-02  
  4.87000000E+00   3.31298966E-02   2.04046012E-02  
  4.87000000E+00   3.31298966E-02   2.04046012E-02  
  6.44240444E+00   9.55182460E-03   7.30154795E-03  
  6.44240444E+00   9.55182460E-03   7.30154795E-03  
  6.44240444E+00   9.55182460E-03   7.30154795E-03  
  6.44240444E+00   9.55182460E-03   7.30154795E-03  
  6.44240444E+00   9.66648646E-03   8.09502235E-03  
  6.44240444E+00   9.66648646E-03   8.09502235E-03  
  6.44240444E+00   9.66648646E-03   8.09502235E-03  
  6.44240444E+00   9.66648646E-03   8.09502235E-03  
  6.44240444E+00   2.87723955E-02   2.81914912E-02  
  6.44240444E+00   2.87723955E-02   2.81914912E-02  
  6.44240444E+00   2.87723955E-02   2.81914912E-02  
  6.44240444E+00   2.87723955E-02   2.81914912E-02  
  7.30500000E+00   5.34733299E-03   2.75152596E-03  
  7.30500000E+00   5.34733299E-03   2.75152596E-03  
  7.30500000E+00   8.27652495E-03   7.30090632E-03  
  7.30500000E+00   8.27652495E-03   7.30090632E-03  
  7.30500000E+00   8.27652495E-03   7.30090632E-03  
  7.30500000E+00   8.27652495E-03   7.30090632E-03  
  8.43508743E+00   2.55603974E-03   1.53283375E-03  
  8.43508743E+00   2.55603974E-03   1.53283375E-03  
  8.43508743E+00   2.55603974E-03   1.53283375E-03  
  8.43508743E+00   2.55603974E-03   1.53283375E-03  
  8.43508743E+00   4.52374999E-03   3.39993771E-03  
  8.43508743E+00   4.52374999E-03   3.39993771E-03  
  8.77951736E+00   1.11859439E-03   6.73927982E-04  
  8.77951736E+00   1.11859439E-03   6.73927982E-04  
  8.77951736E+00   1.64524792E-03   1.24381166E-03  
  8.77951736E+00   1.64524792E-03   1.24381166E-03  
  8.77951736E+00   1.64524792E-03   1.24381167E-03  
  8.77951736E+00   1.64524792E-03   1.24381167E-03  
  8.77951736E+00   2.83589836E-03   2.59335549E-03  
  8.77951736E+00   2.83589836E-03   2.59335549E-03  
  8.77951736E+00   1.11859438E-03   6.73927982E-04  
  8.77951736E+00   1.11859438E-03   6.73927982E-04  
  8.77951736E+00   2.83589836E-03   2.59335549E-03  
  8.77951736E+00   2.83589836E-03   2.59335549E-03  
  9.74000000E+00   2.08034002E-03   1.38296175E-03  
  9.74000000E+00   2.08034002E-03   1.38296175E-03  
  9.74000000E+00   2.43871925E-03   1.43746915E-03  
  9.74000000E+00   2.43871925E-03   1.43746915E-03  
  9.74000000E+00   2.43871925E-03   1.43746915E-03  
  9.74000000E+00   2.43871925E-03   1.43746915E-03  
  1.06139189E+01   2.68401439E-03   2.62863789E-03  
  1.06139189E+01   2.68401439E-03   2.62863789E-03  
  1.06139189E+01   2.45236354E-03   2.05077636E-03  
  1.06139189E+01   2.45236354E-03   2.05077636E-03  
  1.06139189E+01   2.45236355E-03   2.05077636E-03  
  1.06139189E+01   2.45236355E-03   2.05077636E-03  
  1.06139189E+01   2.68401439E-03   2.62863789E-03  
  1.06139189E+01   2.68401439E-03   2.62863789E-03  
  1.06139189E+01   2.72594500E-03   2.64855620E-03  
  1.06139189E+01   2.72594500E-03   2.64855620E-03  
  1.06139189E+01   2.72594500E-03   2.64855620E-03  
  1.06139189E+01   2.72594500E-03   2.64855620E-03  
  1.11585718E+01   1.06558208E-03   6.16210771E-04  
  1.11585718E+01   1.06558208E-03   6.16210771E-04  
  1.11585718E+01   1.06558209E-03   6.16210772E-04  
  1.11585718E+01   1.06558209E-03   6.16210772E-04  
  1.11585718E+01   1.32173445E-03   7.60858026E-04  
  1.11585718E+01   1.32173445E-03   7.60858026E-04  
  1.11585718E+01   2.15109599E-03   1.43750040E-03  
  1.11585718E+01   2.15109599E-03   1.43750040E-03  
  1.11585718E+01   2.15109599E-03   1.43750040E-03  
  1.11585718E+01   2.15109599E-03   1.43750040E-03  
  1.11585718E+01   1.32173445E-03   7.60858023E-04  
  1.11585718E+01   1.32173445E-03   7.60858023E-04  
  1.21750000E+01   1.72000228E-03   9.48868317E-04  
  1.21750000E+01   1.72000228E-03   9.48868317E-04  
  1.21750000E+01   1.97988816E-03   1.43762121E-03  
  1.21750000E+01   1.97988816E-03   1.43762121E-03  
  1.21750000E+01   1.97988816E-03   1.43762121E-03  
  1.21750000E+01   1.97988816E-03   1.43762121E-03  
  1.26526311E+01   3.56005283E-03   2.62868013E-03  
  1.26526311E+01   3.56005283E-03   2.62868013E-03  
  1.26526311E+01   3.56005283E-03   2.62868013E-03  
  1.26526311E+01   3.56005283E-03   2.62868013E-03  
  1.26526311E+01   4.10283925E-03   3.12040883E-03  
  1.26526311E+01   4.10283925E-03   3.12040883E-03  
  1.28848089E+01   1.65392667E-03   1.34200555E-03  
  1.28848089E+01   1.65392667E-03   1.34200555E-03  
  1.28848089E+01   1.65392667E-03   1.34200555E-03  
  1.28848089E+01   1.65392667E-03   1.34200555E-03  
  1.28848089E+01   2.45285419E-03   2.38374015E-03  
  1.28848089E+01   2.45285419E-03   2.38374015E-03  
  1.28848089E+01   2.45285419E-03   2.38374015E-03  
  1.28848089E+01   2.45285419E-03   2.38374015E-03  
  1.28848089E+01   2.92826734E-03   2.62864802E-03  
  1.28848089E+01   2.92826734E-03   2.62864802E-03  
  1.28848089E+01   2.92826734E-03   2.62864803E-03  
  1.28848089E+01   2.92826734E-03   2.62864803E-03  
  1.35575062E+01   8.45219021E-04   4.76254902E-04  
  1.35575062E+01   8.45219021E-04   4.76254902E-04  
  1.35575062E+01   8.45219022E-04   4.76254903E-04  
  1.35575062E+01   8.45219022E-04   4.76254903E-04  
  1.35575062E+01   1.40048135E-03   1.20632609E-03  
  1.35575062E+01   1.40048135E-03   1.20632609E-03  
  1.35575062E+01   1.40048134E-03   1.20632609E-03  
  1.35575062E+01   1.40048134E-03   1.20632609E-03  
  1.35575062E+01   1.64887875E-03   1.29851978E-03  
  1.35575062E+01   1.64887875E-03   1.29851978E-03  
  1.35575062E+01   1.64887875E-03   1.29851978E-03  
  1.35575062E+01   1.64887875E-03   1.29851978E-03  
  1.46100000E+01   6.99976612E-04   4.28434315E-04  
  1.46100000E+01   6.99976612E-04   4.28434315E-04  
  1.46100000E+01   6.99976614E-04   4.28434315E-04  
  1.46100000E+01   6.99976614E-04   4.28434315E-04  
  1.46100000E+01   7.99740398E-04   4.28428797E-04  
  1.46100000E+01   7.99740398E-04   4.28428797E-04  
  1.48115268E+01   1.16234897E-03   8.51196895E-04  
  1.48115268E+01   1.16234897E-03   8.51196895E-04  
  1.48115268E+01   1.16234897E-03   8.51196896E-04  
  1.48115268E+01   1.16234897E-03   8.51196896E-04  
  1.48115268E+01   3.29941270E-03   3.12030342E-03  
  1.48115268E+01   3.29941270E-03   3.12030342E-03  
  1.48115268E+01   2.89700141E-03   2.38381293E-03  
  1.48115268E+01   2.89700141E-03   2.38381293E-03  
  1.48115268E+01   2.89700141E-03   2.38381293E-03  
  1.48115268E+01   2.89700141E-03   2.38381293E-03  
  1.48115268E+01   3.29941269E-03   3.12030342E-03  
  1.48115268E+01   3.29941269E-03   3.12030342E-03  
  1.52065701E+01   2.02289124E-03   1.22746542E-03  
  1.52065701E+01   2.02289124E-03   1.22746542E-03  
  1.52065701E+01   2.01892440E-03   1.29863441E-03  
  1.52065701E+01   2.01892440E-03   1.29863441E-03  
  1.52065701E+01   2.01892440E-03   1.29863441E-03  
  1.52065701E+01   2.01892440E-03   1.29863441E-03  
  1.52065701E+01   2.02289124E-03   1.22746542E-03  
  1.52065701E+01   2.02289124E-03   1.22746542E-03  
  1.52065701E+01   1.84155880E-03   1.20640318E-03  
  1.52065701E+01   1.84155880E-03   1.20640318E-03  
  1.52065701E+01   1.84155880E-03   1.20640318E-03  
  1.52065701E+01   1.84155880E-03   1.20640318E-03  
  1.59673628E+01   1.60781591E-03   1.29861520E-03  
  1.59673628E+01   1.60781591E-03   1.29861520E-03  
  1.59673628E+01   1.05547384E-03   6.63757872E-04  
  1.59673628E+01   1.05547384E-03   6.63757872E-04  
  1.59673628E+01   1.05547384E-03   6.63757870E-04  
  1.59673628E+01   1.05547384E-03   6.63757870E-04  
  1.59673628E+01   1.56780502E-03   1.22741800E-03  
  1.59673628E+01   1.56780502E-03   1.22741800E-03  
  1.59673628E+01   1.56780502E-03   1.22741800E-03  
  1.59673628E+01   1.56780502E-03   1.22741800E-03  
  1.59673628E+01   1.60781592E-03   1.29861521E-03  
  1.59673628E+01   1.60781592E-03   1.29861521E-03  
  1.68701749E+01   1.97801210E-03   1.34955403E-03  
  1.68701749E+01   1.97801210E-03   1.34955403E-03  
  1.68701749E+01   2.61107129E-03   1.44532923E-03  
  1.68701749E+01   2.61107129E-03   1.44532923E-03  
  1.68701749E+01   2.61107129E-03   1.44532923E-03  
  1.68701749E+01   2.61107129E-03   1.44532923E-03  
  1.70450000E+01   8.80717526E-04   7.27250451E-04  
  1.70450000E+01   8.80717526E-04   7.27250451E-04  
  1.70450000E+01   8.80717527E-04   7.27250451E-04  
  1.70450000E+01   8.80717527E-04   7.27250451E-04  
  1.70450000E+01   1.03715722E-03   7.21334940E-04  
  1.70450000E+01   1.03715722E-03   7.21334940E-04  
  1.70450000E+01   1.11367064E-03   1.04216750E-03  
  1.70450000E+01   1.11367064E-03   1.04216750E-03  
  1.70450000E+01   1.11367064E-03   1.04216750E-03  
  1.70450000E+01   1.11367064E-03   1.04216750E-03  
  1.70450000E+01   1.79652628E-03   1.44534814E-03  
  1.70450000E+01   1.79652628E-03   1.44534814E-03  
  1.70450000E+01   1.79652628E-03   1.44534814E-03  
  1.70450000E+01   1.79652628E-03   1.44534814E-03  
  1.70450000E+01   1.88710460E-03   1.56528470E-03  
  1.70450000E+01   1.88710460E-03   1.56528470E-03  
  1.70450000E+01   1.88710461E-03   1.56528470E-03  
  1.70450000E+01   1.88710461E-03   1.56528470E-03  
  1.75590347E+01   1.35746682E-03   1.03485186E-03  
  1.75590347E+01   1.35746682E-03   1.03485186E-03  
  1.75590347E+01   1.35746682E-03   1.03485186E-03  
  1.75590347E+01   1.35746682E-03   1.03485186E-03  
  1.75590347E+01   1.36110774E-03   1.02924310E-03  
  1.75590347E+01   1.36110774E-03   1.02924310E-03  
  1.75590347E+01   1.70164892E-03   1.22746826E-03  
  1.75590347E+01   1.70164892E-03   1.22746826E-03  
  1.75590347E+01   1.36110774E-03   1.02924310E-03  
  1.75590347E+01   1.36110774E-03   1.02924310E-03  
  1.75590347E+01   1.70164891E-03   1.22746826E-03  
  1.75590347E+01   1.70164891E-03   1.22746826E-03  
  1.83838468E+01   1.19494016E-03   7.11291287E-04  
  1.83838468E+01   1.19494016E-03   7.11291287E-04  
  1.83838468E+01   1.62765530E-03   1.27274561E-03  
  1.83838468E+01   1.62765530E-03   1.27274561E-03  
  1.83838468E+01   1.62765530E-03   1.27274561E-03  
  1.83838468E+01   1.62765530E-03   1.27274561E-03  
  1.83838468E+01   2.12905781E-03   1.56527367E-03  
  1.83838468E+01   2.12905781E-03   1.56527367E-03  
  1.83838468E+01   2.12905782E-03   1.56527368E-03  
  1.83838468E+01   2.12905782E-03   1.56527368E-03  
  1.83838468E+01   1.19494016E-03   7.11291285E-04  
  1.83838468E+01   1.19494016E-03   7.11291285E-04  
  1.90179580E+01   6.43620643E-04   4.09634211E-04  
  1.90179580E+01   6.43620643E-04   4.09634211E-04  
  1.90179580E+01   6.43620643E-04   4.09634211E-04  
  1.90179580E+01   6.43620643E-04   4.09634211E-04  
  1.90179580E+01   8.19256496E-04   5.14347639E-04  
  1.90179580E+01   8.19256496E-04   5.14347639E-04  
  1.90179580E+01   8.19256498E-04   5.14347641E-04  
  1.90179580E+01   8.19256498E-04   5.14347641E-04  
  1.90179580E+01   1.22121063E-03   1.04224007E-03  
  1.90179580E+01   1.22121063E-03   1.04224007E-03  
  1.90179580E+01   1.22121063E-03   1.04224007E-03  
  1.90179580E+01   1.22121063E-03   1.04224007E-03  
  1.93272133E+01   1.01228052E-03   8.32075193E-04  
  1.93272133E+01   1.01228052E-03   8.32075193E-04  
  1.93272133E+01   1.04308762E-03   9.04240538E-04  
  1.93272133E+01   1.04308762E-03   9.04240538E-04  
  1.93272133E+01   1.01228052E-03   8.32075192E-04  
  1.93272133E+01   1.01228052E-03   8.32075192E-04  
  1.93272133E+01   1.04308762E-03   9.04240536E-04  
  1.93272133E+01   1.04308762E-03   9.04240536E-04  
  1.93272133E+01   1.10946861E-03   1.02916771E-03  
  1.93272133E+01   1.10946861E-03   1.02916771E-03  
  1.93272133E+01   1.10946861E-03   1.02916771E-03  
  1.93272133E+01   1.10946861E-03   1.02916771E-03  
  1.94800000E+01   1.90403064E-03   1.22204287E-03  
  1.94800000E+01   1.90403064E-03   1.22204287E-03  
  1.94800000E+01   2.34945358E-03   1.56525429E-03  
  1.94800000E+01   2.34945358E-03   1.56525429E-03  
  1.94800000E+01   2.34945358E-03   1.56525429E-03  
  1.94800000E+01   2.34945358E-03   1.56525429E-03  
  1.99313340E+01   8.52750674E-04   8.32086431E-04  
  1.99313340E+01   8.52750674E-04   8.32086431E-04  
  1.99313340E+01   8.52750675E-04   8.32086431E-04  
  1.99313340E+01   8.52750675E-04   8.32086431E-04  
  1.99313340E+01   1.05334577E-03   1.03475164E-03  
  1.99313340E+01   1.05334577E-03   1.03475164E-03  
  1.99313340E+01   1.05334578E-03   1.03475164E-03  
  1.99313340E+01   1.05334578E-03   1.03475164E-03  
  1.99313340E+01   1.56367718E-03   1.27287680E-03  
  1.99313340E+01   1.56367718E-03   1.27287680E-03  
  1.99313340E+01   1.56367719E-03   1.27287680E-03  
  1.99313340E+01   1.56367719E-03   1.27287680E-03  
  2.08046491E+01   3.68182129E-04   2.88202279E-04  
  2.08046491E+01   3.68182129E-04   2.88202279E-04  
  2.08046491E+01   3.68182131E-04   2.88202280E-04  
  2.08046491E+01   3.68182131E-04   2.88202280E-04  
  2.08046491E+01   1.29168241E-03   1.15070396E-03  
  2.08046491E+01   1.29168241E-03   1.15070396E-03  
  2.08046491E+01   1.29168241E-03   1.15070396E-03  
  2.08046491E+01   1.29168241E-03   1.15070396E-03  
  2.08046491E+01   1.37341806E-03   1.27279173E-03  
  2.08046491E+01   1.37341806E-03   1.27279173E-03  
  2.08046491E+01   1.37341805E-03   1.27279173E-03  
  2.08046491E+01   1.37341805E-03   1.27279173E-03  
  2.10877186E+01   1.15824324E-03   6.83465396E-04  
  2.10877186E+01   1.15824324E-03   6.83465396E-04  
  2.10877186E+01   1.15824324E-03   6.83465394E-04  
  2.10877186E+01   1.15824324E-03   6.83465394E-04  
  2.10877186E+01   1.54233446E-03   1.17260618E-03  
  2.10877186E+01   1.54233446E-03   1.17260618E-03  
  2.12278379E+01   1.00463664E-03   6.97085324E-04  
  2.12278379E+01   1.00463664E-03   6.97085324E-04  
  2.12278379E+01   7.36258569E-04   4.23420960E-04  
  2.12278379E+01   7.36258569E-04   4.23420960E-04  
  2.12278379E+01   7.36258570E-04   4.23420961E-04  
  2.12278379E+01   7.36258570E-04   4.23420961E-04  
  2.12278379E+01   7.81667152E-04   4.77682599E-04  
  2.12278379E+01   7.81667152E-04   4.77682599E-04  
  2.12278379E+01   7.81667152E-04   4.77682599E-04  
  2.12278379E+01   7.81667152E-04   4.77682599E-04  
  2.12278379E+01   1.00463664E-03   6.97085326E-04  
  2.12278379E+01   1.00463664E-03   6.97085326E-04  
  2.16427534E+01   1.00274210E-03   9.04263310E-04  
  2.16427534E+01   1.00274210E-03   9.04263310E-04  
  2.16427534E+01   3.87922705E-04   2.98510661E-04  
  2.16427534E+01   3.87922705E-04   2.98510661E-04  
  2.16427534E+01   3.87922707E-04   2.98510661E-04  
  2.16427534E+01   3.87922707E-04   2.98510661E-04  
  2.16427534E+01   1.00274210E-03   9.04263311E-04  
  2.16427534E+01   1.00274210E-03   9.04263311E-04  
  2.16427534E+01   1.08107310E-03   1.03433552E-03  
  2.16427534E+01   1.08107310E-03   1.03433552E-03  
  2.16427534E+01   1.08107310E-03   1.03433552E-03  
  2.16427534E+01   1.08107310E-03   1.03433552E-03  
  2.19150000E+01   1.38940860E-03   8.50658478E-04  
  2.19150000E+01   1.38940860E-03   8.50658478E-04  
  2.19150000E+01   2.03342935E-03   1.61385363E-03  
  2.19150000E+01   2.03342935E-03   1.61385363E-03  
  2.19150000E+01   2.03342935E-03   1.61385363E-03  
  2.19150000E+01   2.03342935E-03   1.61385363E-03  
  2.23171436E+01   5.16510893E-04   4.17278502E-04  
  2.23171436E+01   5.16510893E-04   4.17278502E-04  
  2.23171436E+01   1.16236822E-03   1.12357442E-03  
  2.23171436E+01   1.16236822E-03   1.12357442E-03  
  2.23171436E+01   1.16236822E-03   1.12357443E-03  
  2.23171436E+01   1.16236822E-03   1.12357443E-03  
  2.23171436E+01   1.56684304E-03   1.15060312E-03  
  2.23171436E+01   1.56684304E-03   1.15060312E-03  
  2.23171436E+01   1.56684304E-03   1.15060312E-03  
  2.23171436E+01   1.56684304E-03   1.15060312E-03  
  2.23171436E+01   5.16510894E-04   4.17278503E-04  
  2.23171436E+01   5.16510894E-04   4.17278503E-04  
  2.32284196E+01   9.78080220E-04   5.75369536E-04  
  2.32284196E+01   9.78080220E-04   5.75369536E-04  
  2.32284196E+01   9.78080220E-04   5.75369537E-04  
  2.32284196E+01   9.78080220E-04   5.75369537E-04  
  2.32284196E+01   1.13558587E-03   7.42173071E-04  
  2.32284196E+01   1.13558587E-03   7.42173071E-04  
  2.32284196E+01   1.21969976E-03   1.02741305E-03  
  2.32284196E+01   1.21969976E-03   1.02741305E-03  
  2.32284196E+01   1.75231287E-03   1.20114885E-03  
  2.32284196E+01   1.75231287E-03   1.20114885E-03  
  2.32284196E+01   1.75231287E-03   1.20114885E-03  
  2.32284196E+01   1.75231287E-03   1.20114885E-03  
  2.32284196E+01   9.78093664E-04   5.75364544E-04  
  2.32284196E+01   9.78093664E-04   5.75364544E-04  
  2.32284196E+01   9.78093664E-04   5.75364545E-04  
  2.32284196E+01   9.78093664E-04   5.75364545E-04  
  2.32284196E+01   1.12241608E-03   8.06886914E-04  
  2.32284196E+01   1.12241608E-03   8.06886914E-04  
  2.32284196E+01   1.12241608E-03   8.06886914E-04  
  2.32284196E+01   1.12241608E-03   8.06886914E-04  
  2.32284196E+01   1.13558587E-03   7.42173071E-04  
  2.32284196E+01   1.13558587E-03   7.42173071E-04  
  2.32284196E+01   1.21969976E-03   1.02741305E-03  
  2.32284196E+01   1.21969976E-03   1.02741305E-03  
  2.34822896E+01   9.08052788E-04   6.84136294E-04  
  2.34822896E+01   9.08052788E-04   6.84136294E-04  
  2.34822896E+01   1.36673810E-03   1.20096933E-03  
  2.34822896E+01   1.36673810E-03   1.20096933E-03  
  2.34822896E+01   1.98454257E-03   1.78460055E-03  
  2.34822896E+01   1.98454257E-03   1.78460055E-03  
  2.34822896E+01   1.98454257E-03   1.78460055E-03  
  2.34822896E+01   1.98454257E-03   1.78460055E-03  
  2.34822896E+01   9.08052787E-04   6.84136294E-04  
  2.34822896E+01   9.08052787E-04   6.84136294E-04  
  2.34822896E+01   1.36673810E-03   1.20096933E-03  
  2.34822896E+01   1.36673810E-03   1.20096933E-03  
  2.39819687E+01   6.52201159E-04   5.17116717E-04  
  2.39819687E+01   6.52201159E-04   5.17116717E-04  
  2.39819687E+01   6.52201609E-04   5.17117215E-04  
  2.39819687E+01   6.52201609E-04   5.17117215E-04  
  2.39819687E+01   1.10922477E-03   8.92346399E-04  
  2.39819687E+01   1.10922477E-03   8.92346399E-04  
  2.39819687E+01   1.10922477E-03   8.92346399E-04  
  2.39819687E+01   1.10922477E-03   8.92346399E-04  
  2.39819687E+01   6.52201158E-04   5.17116716E-04  
  2.39819687E+01   6.52201158E-04   5.17116716E-04  
  2.39819687E+01   6.52201608E-04   5.17117214E-04  
  2.39819687E+01   6.52201608E-04   5.17117214E-04  
  2.53052623E+01   1.31115845E-03   9.86801332E-04  
  2.53052623E+01   1.31115845E-03   9.86801332E-04  
  2.53052623E+01   2.14248033E-03   1.82769932E-03  
  2.53052623E+01   2.14248033E-03   1.82769932E-03  
  2.53052623E+01   2.14248034E-03   1.82769932E-03  
  2.53052623E+01   2.14248034E-03   1.82769932E-03  
  2.54221463E+01   8.28200395E-04   6.00530026E-04  
  2.54221463E+01   8.28200395E-04   6.00530026E-04  
  2.54221463E+01   8.28200396E-04   6.00530027E-04  
  2.54221463E+01   8.28200396E-04   6.00530027E-04  
  2.54221463E+01   8.28200754E-04   6.00530292E-04  
  2.54221463E+01   8.28200754E-04   6.00530292E-04  
  2.54221463E+01   8.28200755E-04   6.00530292E-04  
  2.54221463E+01   8.28200755E-04   6.00530292E-04  
  2.54221463E+01   1.00666258E-03   9.13784192E-04  
  2.54221463E+01   1.00666258E-03   9.13784192E-04  
  2.54221463E+01   1.00666258E-03   9.13784192E-04  
  2.54221463E+01   1.00666258E-03   9.13784192E-04  

