# written on 12Aug2025 at 17:58:58  (created by pw2cw)
           2
         379
    2    1    2    2    1    1    1    1    2    2    1    1    1    1    1
    1    1    2    2    1    1    1    1    1    1    1    1    1    1    2
    2    1    1    1    1    1    1    1    1    1    1    1    1    1    2
    2    1    1    1    1    1    1    1    1    1    1    1    1    1    1
    1    1    2    1    1    1    1    1    1    1    1    1    1    1    1
    1    1    1    1    1    1    1    2    1    1    1    1    1    1    1
    1    1    1    1    1    1    1    1    1    1    1    2    1    1    1
    1    1    1    1    1    1    1    1    1    1    1    1    1    1    1
    1    2    1    1    1    1    1    1    1    1    1    1    1    1    1
    1    1    1    1    1    2    1    1    1    1    1    1    1    1    1
    1    1    1    1    1    1    1    1    1    1    2    1    1    1    1
    1    1    1    1    1    1    1    1    1    1    1    1    1    1    2
    1    1    1    1    1    1    1    1    1    1    1    1    1    1    1
    1    1    1    1    2    1    1    1    1    1    1    1    1    1    1
    1    1    1    1    1    1    1    1    2    1    1    1    1    1    1
    1    1    1    1    1    1    1    1    1    1    1    1    1    2    1
    1    1    1    1    1    1    1    1    1    1    1    1    1    1    1
    1    1    2    1    1    1    1    1    1    1    1    1    1    1    1
    1    1    1    1    1    1    1    2    1    1    1    1    1    1    1
    1    1    1    1    1    1    1    1    1    1    1    2    1    1    1
    1    1    1    1    1    1    1    1    1    1    1    1    1    1    1
    1    2    1    1    1    1    1    1    1    1    1    1    1    1    1
    1    1    1    2    2    1    1    1    1    1    1    1    1    1    1
    1    1    1    2    2    1    1    1    1    1    1    1    1    1    1
    2    2    1    1    1    1    1    1    1    2    2    1    1    1    1
    2    2    1    2
  -12   -7    0    1    1    3.50391635E-04   4.01514492E-13
  -12   -7    0    2    1    6.84049294E-04   1.00085635E-12
  -12   -7    0    1    2   -1.82756838E-03  -1.80106891E-13
  -12   -7    0    2    2    3.50391637E-04  -4.08839061E-13
  -12   -6    0    1    1    3.11834623E-04  -9.85023897E-13
  -12   -6    0    2    1    1.02725630E-03  -7.94668434E-13
  -12   -6    0    1    2   -1.82769932E-03  -6.94869830E-13
  -12   -6    0    2    2    3.11834624E-04   9.92019209E-13
  -12   -5    0    1    1    3.50391766E-04  -6.02199461E-13
  -12   -5    0    2    1    1.02740968E-03   7.84267996E-14
  -12   -5    0    1    2   -1.20106058E-03   1.03882474E-12
  -12   -5    0    2    2    3.50391762E-04   5.84745876E-13
  -11   -8    0    1    1    4.86681129E-04  -1.63761715E-12
  -11   -8    0    2    1    1.12368720E-03   1.14695822E-12
  -11   -8    0    1    2   -1.78469280E-03  -6.57035360E-13
  -11   -8    0    2    2    4.86681127E-04   1.63213941E-12
  -11   -7    0    1    1    3.65702623E-04   3.33051637E-13
  -11   -7    0    2    1    3.97704537E-04   4.01759482E-13
  -11   -7    0    1    2   -1.20096933E-03   6.04623852E-13
  -11   -7    0    2    2    3.65702623E-04  -3.30303467E-13
  -11   -6    0    1    1   -3.55541371E-04   1.22110874E-12
  -11   -6    0    2    1    6.97076080E-04  -1.21806986E-12
  -11   -6    0    1    2   -7.42173071E-04   7.33008168E-13
  -11   -6    0    2    2   -3.55541371E-04  -1.21909498E-12
  -11   -5    0    1    1   -3.55541458E-04  -4.32706594E-13
  -11   -5    0    2    1    1.17261349E-03  -1.49075147E-12
  -11   -5    0    1    2   -1.20114885E-03  -4.41669277E-13
  -11   -5    0    2    2   -3.55541463E-04   4.32468025E-13
  -11   -4    0    1    1    3.65702567E-04  -7.62898184E-13
  -11   -4    0    2    1    6.97232639E-04   8.33305752E-13
  -11   -4    0    1    2   -1.78460055E-03  -6.63352661E-13
  -11   -4    0    2    2    3.65702568E-04   7.55849489E-13
  -11   -3    0    1    1    4.86680811E-04  -6.11449452E-14
  -11   -3    0    2    1    3.97630710E-04   7.81864751E-13
  -11   -3    0    1    2   -1.03423343E-03   2.27191362E-13
  -11   -3    0    2    2    4.86680816E-04   6.55694852E-14
  -10   -9    0    1    1   -1.06323054E-03  -4.00983369E-13
  -10   -9    0    2    1    1.61377383E-03   2.32295176E-12
  -10   -9    0    1    2   -4.17237490E-04  -1.36105850E-12
  -10   -9    0    2    2   -1.06323054E-03   4.06416883E-13
  -10   -8    0    1    1   -1.74735566E-04   2.31213124E-13
  -10   -8    0    2    1    1.15060312E-03   8.29105911E-13
  -10   -8    0    1    2   -1.03442957E-03  -1.02857609E-12
  -10   -8    0    2    2   -1.74735568E-04  -2.21624012E-13
  -10   -7    0    1    1    1.22025118E-04  -5.23406226E-13
  -10   -7    0    2    1   -1.77750254E-04   1.14833974E-12
  -10   -7    0    1    2   -2.98510661E-04  -1.95477480E-13
  -10   -7    0    2    2    1.22025114E-04   5.25545463E-13
  -10   -6    0    1    1   -3.83191984E-04  -1.34343946E-12
  -10   -6    0    2    1   -2.62905268E-04   2.06654328E-13
  -10   -6    0    1    2    4.23420960E-04   2.07656415E-12
  -10   -6    0    2    2   -3.83191981E-04   1.32937200E-12
  -10   -5    0    1    1   -6.83465394E-04   1.41923133E-12
  -10   -5    0    2    1    4.77592828E-04  -5.37902707E-14
  -10   -5    0    1    2    4.23299656E-04   3.82336107E-13
  -10   -5    0    2    2   -6.83465394E-04  -1.41675856E-12
  -10   -4    0    1    1   -3.83192219E-04  -1.63827966E-13
  -10   -4    0    2    1    4.77682599E-04  -6.16074655E-13
  -10   -4    0    1    2   -2.98580504E-04  -4.11331950E-13
  -10   -4    0    2    2   -3.83192220E-04   1.65667931E-13
  -10   -3    0    1    1    1.22025438E-04   2.65599828E-13
  -10   -3    0    2    1   -2.62847240E-04   2.50310894E-13
  -10   -3    0    1    2   -1.03433552E-03   1.14504003E-14
  -10   -3    0    2    2    1.22025440E-04  -2.71167627E-13
  -10   -2    0    1    1   -1.74734607E-04  -1.29777295E-12
  -10   -2    0    2    1   -1.77757669E-04  -2.77284995E-13
  -10   -2    0    1    2   -4.17278502E-04   1.70826352E-12
  -10   -2    0    2    2   -1.74734608E-04   1.29398860E-12
  -10   -1    0    1    1   -1.06323175E-03  -3.69646563E-13
  -10   -1    0    2    1    1.15072909E-03  -2.09762926E-12
  -10   -1    0    1    2    4.91495606E-04   9.14572486E-13
  -10   -1    0    2    2   -1.06323175E-03   3.62738076E-13
   -9  -10    0    1    1   -1.06323054E-03   4.01429614E-13
   -9  -10    0    2    1   -4.17237490E-04   1.36295030E-12
   -9  -10    0    1    2    1.61377383E-03  -2.32635134E-12
   -9  -10    0    2    2   -1.06323054E-03  -4.05971470E-13
   -9   -9    0    1    1   -8.50658478E-04  -7.59143949E-13
   -9   -9    0    2    1    4.91536660E-04   5.86169895E-13
   -9   -9    0    1    2    4.91536662E-04  -9.57117558E-13
   -9   -9    0    2    2   -8.50658478E-04   7.53075533E-13
   -9   -8    0    1    1    1.11490510E-04  -4.53575043E-13
   -9   -8    0    2    1   -2.88202279E-04  -6.28940067E-13
   -9   -8    0    1    2    1.66244577E-04  -4.19290715E-13
   -9   -8    0    2    2    1.11490510E-04   4.57729596E-13
   -9   -7    0    1    1    6.00340436E-05   2.65266593E-12
   -9   -7    0    2    1   -1.27287680E-03  -1.13976694E-12
   -9   -7    0    1    2    9.04247100E-04  -3.63159259E-13
   -9   -7    0    2    2    6.00340415E-05  -2.64368503E-12
   -9   -6    0    1    1   -2.26494082E-04   2.78566053E-13
   -9   -6    0    2    1   -8.32075192E-04  -1.78282833E-14
   -9   -6    0    1    2    4.79336612E-04  -7.93495858E-13
   -9   -6    0    2    2   -2.26494080E-04  -2.82841959E-13
   -9   -5    0    1    1    2.97440736E-04  -1.01400969E-12
   -9   -5    0    2    1   -4.09634211E-04   9.52884312E-13
   -9   -5    0    1    2   -2.63638695E-04  -4.02138105E-13
   -9   -5    0    2    2    2.97440738E-04   1.02377069E-12
   -9   -4    0    1    1    2.97440497E-04  -1.64146577E-14
   -9   -4    0    2    1   -5.14347639E-04   1.62414863E-12
   -9   -4    0    1    2    4.79255689E-04  -2.57385130E-13
   -9   -4    0    2    2    2.97440496E-04   1.06844773E-14
   -9   -3    0    1    1   -2.26494038E-04  -1.54638728E-13
   -9   -3    0    2    1   -4.09611689E-04   3.78211893E-13
   -9   -3    0    1    2    9.04240536E-04  -4.46050442E-13
   -9   -3    0    2    2   -2.26494041E-04   1.64073722E-13
   -9   -2    0    1    1    6.00355861E-05   1.33489905E-13
   -9   -2    0    2    1   -8.32086431E-04   2.78302008E-13
   -9   -2    0    1    2    1.66154568E-04   1.43706018E-12
   -9   -2    0    2    2    6.00355879E-05  -1.34563416E-13
   -9   -1    0    1    1    1.11498724E-04  -1.21906007E-12
   -9   -1    0    2    1   -1.27279173E-03  -6.27854432E-13
   -9   -1    0    1    2    4.91339435E-04   1.46040547E-12
   -9   -1    0    2    2    1.11498724E-04   1.21150660E-12
   -9    0    0    1    1   -8.50654555E-04   1.46758095E-13
   -9    0    0    2    1   -2.88244746E-04  -1.11367597E-12
   -9    0    0    1    2    1.61385363E-03   3.20573682E-13
   -9    0    0    2    2   -8.50654551E-04  -1.61739816E-13
   -9    1    0    1    1   -1.06323175E-03   3.70141605E-13
   -9    1    0    2    1    4.91365199E-04  -9.17484262E-13
   -9    1    0    1    2    1.15073907E-03   2.09726535E-12
   -9    1    0    2    2   -1.06323175E-03  -3.62245497E-13
   -8  -11    0    1    1    4.86681129E-04   1.63790584E-12
   -8  -11    0    2    1   -1.78469280E-03   6.55381067E-13
   -8  -11    0    1    2    1.12368720E-03  -1.14610566E-12
   -8  -11    0    2    2    4.86681127E-04  -1.63185163E-12
   -8  -10    0    1    1   -1.74735568E-04   1.13529357E-12
   -8  -10    0    2    1   -1.03442957E-03   1.26455060E-12
   -8  -10    0    1    2    1.15060312E-03  -2.50905529E-14
   -8  -10    0    2    2   -1.74735567E-04  -1.13508046E-12
   -8   -9    0    1    1    1.11490509E-04   8.07199415E-14
   -8   -9    0    2    1    1.66244579E-04  -3.92149876E-13
   -8   -9    0    1    2   -2.88202280E-04   8.47750317E-13
   -8   -9    0    2    2    1.11490510E-04  -7.68101910E-14
   -8   -8    0    1    1    1.22204287E-03  -1.26256724E-12
   -8   -8    0    2    1   -5.65046524E-04  -1.66575875E-12
   -8   -8    0    1    2   -5.65046529E-04   1.99907869E-12
   -8   -8    0    2    2    1.22204286E-03   1.25792407E-12
   -8   -7    0    1    1    7.11289286E-04   4.95815479E-13
   -8   -7    0    2    1   -1.56527367E-03  -5.00882928E-13
   -8   -7    0    1    2    1.03486260E-03   5.09586119E-13
   -8   -7    0    2    2    7.11289285E-04  -4.99300389E-13
   -8   -6    0    1    1   -5.90227929E-04   2.51989047E-12
   -8   -6    0    2    1   -3.10700679E-04   5.68930248E-13
   -8   -6    0    1    2    1.02924310E-03  -1.66783199E-14
   -8   -6    0    2    2   -5.90227926E-04  -2.52313354E-12
   -8   -5    0    1    1    1.98817162E-04  -1.24776824E-12
   -8   -5    0    2    1    2.74030428E-04   1.55096543E-13
   -8   -5    0    1    2   -1.04216750E-03  -1.37792671E-12
   -8   -5    0    2    2    1.98817163E-04   1.25250307E-12
   -8   -4    0    1    1    1.34955445E-03  -1.65237206E-13
   -8   -4    0    2    1   -1.44532923E-03  -4.92233964E-13
   -8   -4    0    1    2   -1.04217192E-03  -7.06282777E-13
   -8   -4    0    2    2    1.34955445E-03   1.69052195E-13
   -8   -3    0    1    1    1.98816643E-04  -6.57742364E-13
   -8   -3    0    2    1   -1.44534814E-03   3.38368189E-13
   -8   -3    0    1    2    1.02928097E-03   2.15596155E-13
   -8   -3    0    2    2    1.98816643E-04   6.56412671E-13
   -8   -2    0    1    1   -5.90228549E-04   8.19365840E-13
   -8   -2    0    2    1    2.73967711E-04  -1.65795352E-12
   -8   -2    0    1    2    1.03485186E-03  -3.02158430E-13
   -8   -2    0    2    2   -5.90228547E-04  -8.24746225E-13
   -8   -1    0    1    1    7.11291285E-04  -8.31587964E-13
   -8   -1    0    2    1   -3.10709186E-04   2.40390456E-13
   -8   -1    0    1    2   -5.65217832E-04   7.57209036E-13
   -8   -1    0    2    2    7.11291285E-04   8.37509190E-13
   -8    0    0    1    1    1.22204867E-03  -9.94414538E-14
   -8    0    0    2    1   -1.56525429E-03   5.00148465E-13
   -8    0    0    1    2   -2.88279799E-04   5.29938798E-13
   -8    0    0    2    2    1.22204867E-03   1.06657114E-13
   -8    1    0    1    1    1.11498108E-04   1.08032222E-12
   -8    1    0    2    1   -5.65208096E-04   2.76043154E-13
   -8    1    0    1    2    1.15070396E-03   1.88562619E-12
   -8    1    0    2    2    1.11498108E-04  -1.08407419E-12
   -8    2    0    1    1   -1.74734789E-04   7.44371394E-13
   -8    2    0    2    1    1.66180324E-04  -2.87595492E-12
   -8    2    0    1    2    1.12357442E-03   7.29005285E-13
   -8    2    0    2    2   -1.74734789E-04  -7.51574947E-13
   -8    3    0    1    1    4.86680811E-04   6.11831802E-14
   -8    3    0    2    1   -1.03423443E-03  -2.27332605E-13
   -8    3    0    1    2    3.97631072E-04  -7.81986693E-13
   -8    3    0    2    2    4.86680816E-04  -6.55263298E-14
   -7  -12    0    1    1    3.50391635E-04  -4.01374364E-13
   -7  -12    0    2    1   -1.82756838E-03   1.80363600E-13
   -7  -12    0    1    2    6.84049294E-04  -1.00323610E-12
   -7  -12    0    2    2    3.50391637E-04   4.08979507E-13
   -7  -11    0    1    1    3.65702624E-04  -1.35552070E-12
   -7  -11    0    2    1   -1.20096933E-03   1.22490112E-12
   -7  -11    0    1    2    3.97704537E-04  -1.38682177E-12
   -7  -11    0    2    2    3.65702622E-04   1.34643192E-12
   -7  -10    0    1    1    1.22025116E-04   3.93753320E-13
   -7  -10    0    2    1   -2.98510661E-04   1.98138438E-12
   -7  -10    0    1    2   -1.77750257E-04  -1.24066144E-12
   -7  -10    0    2    2    1.22025115E-04  -3.92006506E-13
   -7   -9    0    1    1    6.00340431E-05  -1.57087648E-12
   -7   -9    0    2    1    9.04247102E-04   1.53701194E-12
   -7   -9    0    1    2   -1.27287680E-03   9.37334663E-13
   -7   -9    0    2    2    6.00340420E-05   1.57772489E-12
   -7   -8    0    1    1    7.11289285E-04  -7.07524196E-13
   -7   -8    0    2    1    1.03486261E-03   4.24154796E-14
   -7   -8    0    1    2   -1.56527368E-03   5.28518938E-14
   -7   -8    0    2    2    7.11289286E-04   6.97344118E-13
   -7   -7    0    1    1    7.21334940E-04  -9.67243779E-13
   -7   -7    0    2    1   -1.32376192E-04   7.86746770E-13
   -7   -7    0    1    2   -1.32376193E-04  -1.26675007E-12
   -7   -7    0    2    2    7.21334939E-04   9.65838572E-13
   -7   -6    0    1    1   -6.63751182E-04   9.23679759E-13
   -7   -6    0    2    1    2.65191212E-04   3.73190847E-13
   -7   -6    0    1    2    1.22741800E-03  -1.18029446E-12
   -7   -6    0    2    2   -6.63751183E-04  -9.22982947E-13
   -7   -5    0    1    1   -9.64583766E-04  -1.67429970E-12
   -7   -5    0    2    1    1.29863441E-03   4.92500811E-13
   -7   -5    0    1    2    7.27159348E-04   8.29795185E-13
   -7   -5    0    2    2   -9.64583768E-04   1.67857293E-12
   -7   -4    0    1    1    5.57233028E-04  -6.54611597E-13
   -7   -4    0    2    1   -8.51196896E-04  -3.39019771E-13
   -7   -4    0    1    2   -7.41733803E-05   1.85905521E-13
   -7   -4    0    2    2    5.57233026E-04   6.55717321E-13
   -7   -3    0    1    1    5.57232897E-04   6.97579602E-13
   -7   -3    0    2    1   -3.12030342E-03   9.37703204E-13
   -7   -3    0    1    2    7.27195784E-04   1.24692849E-12
   -7   -3    0    2    2    5.57232898E-04  -6.90012357E-13
   -7   -2    0    1    1   -9.64584786E-04   2.66744617E-15
   -7   -2    0    2    1   -8.51216769E-04  -1.38128413E-12
   -7   -2    0    1    2    1.22746542E-03   1.29011220E-12
   -7   -2    0    2    2   -9.64584784E-04  -9.72352810E-15
   -7   -1    0    1    1   -6.63757875E-04   3.76970623E-13
   -7   -1    0    2    1    1.29861520E-03  -6.34342401E-13
   -7   -1    0    1    2   -1.32368893E-04  -4.94941202E-13
   -7   -1    0    2    2   -6.63757879E-04  -3.71691549E-13
   -7    0    0    1    1    7.21331743E-04  -5.39824083E-13
   -7    0    0    2    1    2.65346262E-04  -1.31557757E-12
   -7    0    0    1    2   -1.56528470E-03  -1.03775026E-12
   -7    0    0    2    2    7.21331739E-04   5.34036810E-13
   -7    1    0    1    1    7.11290790E-04  -8.07641953E-14
   -7    1    0    2    1   -1.32329969E-04   3.68980553E-13
   -7    1    0    1    2   -1.27274561E-03   1.29947763E-12
   -7    1    0    2    2    7.11290787E-04   8.20235558E-14
   -7    2    0    1    1    6.00353629E-05  -2.61198045E-12
   -7    2    0    2    1    1.03475164E-03  -5.67501604E-13
   -7    2    0    1    2   -1.77814174E-04   2.15363155E-12
   -7    2    0    2    2    6.00353641E-05   2.61194964E-12
   -7    3    0    1    1    1.22025828E-04   1.22768210E-13
   -7    3    0    2    1    9.04263310E-04  -1.63076934E-12
   -7    3    0    1    2    3.97516015E-04  -5.76903316E-13
   -7    3    0    2    2    1.22025830E-04  -1.28282526E-13
   -7    4    0    1    1    3.65702772E-04   1.18548241E-12
   -7    4    0    2    1   -2.98396322E-04   1.76269306E-13
   -7    4    0    1    2    6.84136294E-04   3.09721370E-13
   -7    4    0    2    2    3.65702768E-04  -1.19100468E-12
   -7    5    0    1    1    3.50391766E-04   6.02149938E-13
   -7    5    0    2    1   -1.20106005E-03  -1.03841454E-12
   -7    5    0    1    2    1.02740914E-03  -7.81913412E-14
   -7    5    0    2    2    3.50391762E-04  -5.84796627E-13
   -6  -12    0    1    1    3.11834622E-04   9.19979189E-13
   -6  -12    0    2    1   -1.82769932E-03   1.18298286E-12
   -6  -12    0    1    2    1.02725630E-03  -5.40233552E-13
   -6  -12    0    2    2    3.11834624E-04  -9.09870333E-13
   -6  -11    0    1    1   -3.55541371E-04  -1.03972452E-12
   -6  -11    0    2    1   -7.42173071E-04   5.72374559E-13
   -6  -11    0    1    2    6.97076079E-04  -1.33689015E-12
   -6  -11    0    2    2   -3.55541372E-04   1.03734321E-12
   -6  -10    0    1    1   -3.83191981E-04   3.55823620E-13
   -6  -10    0    2    1    4.23420961E-04   8.36758831E-13
   -6  -10    0    1    2   -2.62905269E-04  -1.98402493E-12
   -6  -10    0    2    2   -3.83191984E-04  -3.46426314E-13
   -6   -9    0    1    1   -2.26494083E-04  -3.07712279E-13
   -6   -9    0    2    1    4.79336612E-04   1.25943191E-12
   -6   -9    0    1    2   -8.32075193E-04  -6.17715835E-13
   -6   -9    0    2    2   -2.26494080E-04   3.12965225E-13
   -6   -8    0    1    1   -5.90227927E-04   8.78966079E-13
   -6   -8    0    2    1    1.02924310E-03   5.58872069E-14
   -6   -8    0    1    2   -3.10700680E-04  -3.21714032E-13
   -6   -8    0    2    2   -5.90227928E-04  -8.79493564E-13
   -6   -7    0    1    1   -6.63751184E-04   1.61691040E-12
   -6   -7    0    2    1    1.22741800E-03   1.79383636E-12
   -6   -7    0    1    2    2.65191212E-04   4.34642278E-13
   -6   -7    0    2    2   -6.63751181E-04  -1.61845494E-12
   -6   -6    0    1    1   -4.28428797E-04   5.87692061E-13
   -6   -6    0    2    1    3.69108548E-04  -7.88076601E-13
   -6   -6    0    1    2    3.69108546E-04   1.05035995E-12
   -6   -6    0    2    2   -4.28428794E-04  -5.96844231E-13
   -6   -5    0    1    1   -4.76252718E-04   3.66924598E-13
   -6   -5    0    2    1    2.29111475E-04  -1.56772006E-12
   -6   -5    0    1    2    1.20632609E-03   9.21745761E-14
   -6   -5    0    2    2   -4.76252718E-04  -3.66130413E-13
   -6   -4    0    1    1   -3.23858703E-04   1.08326401E-12
   -6   -4    0    2    1   -3.52856439E-04  -6.72713064E-13
   -6   -4    0    1    2    2.38374015E-03  -1.07500738E-12
   -6   -4    0    2    2   -3.23858705E-04  -1.08689925E-12
   -6   -3    0    1    1    2.02378822E-04   7.77691535E-13
   -6   -3    0    2    1   -2.62868013E-03   1.02828392E-12
   -6   -3    0    1    2    2.38371612E-03  -1.04245865E-12
   -6   -3    0    2    2    2.02378824E-04  -7.77703083E-13
   -6   -2    0    1    1   -3.23857957E-04  -1.55090275E-12
   -6   -2    0    2    1   -2.62864802E-03  -4.32204254E-15
   -6   -2    0    1    2    1.20631307E-03   1.07874442E-12
   -6   -2    0    2    2   -3.23857953E-04   1.54626393E-12
   -6   -1    0    1    1   -4.76254902E-04   1.59755431E-13
   -6   -1    0    2    1   -3.52836269E-04   5.05074818E-14
   -6   -1    0    1    2    3.69139942E-04   7.91555083E-13
   -6   -1    0    2    2   -4.76254902E-04  -1.50323115E-13
   -6    0    0    1    1   -4.28434312E-04   4.77308937E-13
   -6    0    0    2    1    2.29167550E-04  -3.13665296E-13
   -6    0    0    1    2    2.65212315E-04   2.00728772E-12
   -6    0    0    2    2   -4.28434315E-04  -4.63683968E-13
   -6    1    0    1    1   -6.63757870E-04   6.35024555E-13
   -6    1    0    2    1    3.69269631E-04  -1.76225882E-12
   -6    1    0    1    2   -3.10670156E-04  -4.93895677E-13
   -6    1    0    2    2   -6.63757870E-04  -6.41530333E-13
   -6    2    0    1    1   -5.90228439E-04  -2.68701519E-12
   -6    2    0    2    1    1.22746826E-03   1.24318122E-14
   -6    2    0    1    2   -8.31980462E-04   1.47687996E-12
   -6    2    0    2    2   -5.90228438E-04   2.69101391E-12
   -6    3    0    1    1   -2.26493573E-04   1.41307503E-13
   -6    3    0    2    1    1.02916771E-03   1.69642395E-14
   -6    3    0    1    2   -2.62936777E-04  -9.29577838E-15
   -6    3    0    2    2   -2.26493570E-04  -1.51959558E-13
   -6    4    0    1    1   -3.83191918E-04   1.19829234E-12
   -6    4    0    2    1    4.79264782E-04   2.80237119E-13
   -6    4    0    1    2    6.97085326E-04   6.33818269E-13
   -6    4    0    2    2   -3.83191916E-04  -1.19594211E-12
   -6    5    0    1    1   -3.55541659E-04   4.91401334E-13
   -6    5    0    2    1    4.23403111E-04  -1.25390094E-12
   -6    5    0    1    2    1.02741305E-03  -2.73015344E-13
   -6    5    0    2    2   -3.55541661E-04  -4.93727923E-13
   -6    6    0    1    1    3.11834473E-04  -6.88817711E-13
   -6    6    0    2    1   -7.42211657E-04   5.16379915E-13
   -6    6    0    1    2    9.86801332E-04  -1.04254276E-12
   -6    6    0    2    2    3.11834476E-04   6.76481630E-13
   -5  -12    0    1    1    3.50391764E-04   8.50689133E-13
   -5  -12    0    2    1   -1.20106058E-03  -2.81146194E-13
   -5  -12    0    1    2    1.02740969E-03  -5.74140743E-13
   -5  -12    0    2    2    3.50391764E-04  -8.48739649E-13
   -5  -11    0    1    1   -3.55541459E-04   2.68816580E-13
   -5  -11    0    2    1   -1.20114885E-03   1.16427941E-12
   -5  -11    0    1    2    1.17261349E-03  -8.24631503E-13
   -5  -11    0    2    2   -3.55541462E-04  -2.80204739E-13
   -5  -10    0    1    1   -6.83465393E-04  -2.58769589E-13
   -5  -10    0    2    1    4.23299655E-04   8.73236604E-13
   -5  -10    0    1    2    4.77592828E-04  -8.01430919E-13
   -5  -10    0    2    2   -6.83465396E-04   2.73151581E-13
   -5   -9    0    1    1    2.97440736E-04   4.25351709E-13
   -5   -9    0    2    1   -2.63638693E-04   1.24509452E-13
   -5   -9    0    1    2   -4.09634211E-04  -1.40317743E-13
   -5   -9    0    2    2    2.97440737E-04  -4.43622465E-13
   -5   -8    0    1    1    1.98817162E-04  -6.74607149E-13
   -5   -8    0    2    1   -1.04216750E-03   1.03259748E-13
   -5   -8    0    1    2    2.74030429E-04  -1.12223697E-12
   -5   -8    0    2    2    1.98817163E-04   6.84384416E-13
   -5   -7    0    1    1   -9.64583767E-04   9.66653277E-14
   -5   -7    0    2    1    7.27159349E-04   8.38786421E-13
   -5   -7    0    1    2    1.29863441E-03  -2.00528937E-12
   -5   -7    0    2    2   -9.64583767E-04  -9.32255388E-14
   -5   -6    0    1    1   -4.76252719E-04   2.01371585E-13
   -5   -6    0    2    1    1.20632609E-03   1.18049943E-12
   -5   -6    0    1    2    2.29111470E-04   5.67334170E-13
   -5   -6    0    2    2   -4.76252717E-04  -1.92595788E-13
   -5   -5    0    1    1    9.48868317E-04  -8.50027687E-14
   -5   -5    0    2    1   -7.60823785E-04   4.25627715E-13
   -5   -5    0    1    2   -7.60823788E-04   6.04279767E-13
   -5   -5    0    2    2    9.48868316E-04   9.13988977E-14
   -5   -4    0    1    1    6.16205112E-04   1.63243548E-12
   -5   -4    0    2    1   -1.43750040E-03  -4.08955257E-13
   -5   -4    0    1    2    1.34215836E-03   7.92937866E-13
   -5   -4    0    2    2    6.16205110E-04  -1.64946773E-12
   -5   -3    0    1    1    6.00464816E-05   9.29175873E-13
   -5   -3    0    2    1   -6.39308263E-04  -1.68514475E-12
   -5   -3    0    1    2    2.64855620E-03   1.87717340E-13
   -5   -3    0    2    2    6.00464788E-05  -9.23829447E-13
   -5   -2    0    1    1    6.00473885E-05  -1.80199328E-12
   -5   -2    0    2    1   -2.05077636E-03  -1.45269812E-12
   -5   -2    0    1    2    1.34208491E-03   1.42463615E-12
   -5   -2    0    2    2    6.00473892E-05   1.79868109E-12
   -5   -1    0    1    1    6.16210791E-04  -3.51853594E-13
   -5   -1    0    2    1   -6.39253889E-04  -1.96920704E-12
   -5   -1    0    1    2   -7.60858026E-04  -1.19215553E-12
   -5   -1    0    2    2    6.16210794E-04   3.50693222E-13
   -5    0    0    1    1    9.48870406E-04   5.01478564E-13
   -5    0    0    2    1   -1.43762121E-03   1.44472967E-12
   -5    0    0    1    2    2.29111923E-04   7.67908047E-13
   -5    0    0    2    2    9.48870407E-04  -5.06907949E-13
   -5    1    0    1    1   -4.76254733E-04   1.31673013E-12
   -5    1    0    2    1   -7.60927316E-04   3.60582257E-13
   -5    1    0    1    2    1.29851978E-03  -2.78518799E-15
   -5    1    0    2    2   -4.76254734E-04  -1.31845413E-12
   -5    2    0    1    1   -9.64584541E-04  -4.28645019E-13
   -5    2    0    2    1    1.20640318E-03   1.38422542E-12
   -5    2    0    1    2    2.74013687E-04  -4.18736476E-13
   -5    2    0    2    2   -9.64584540E-04   4.36991610E-13
   -5    3    0    1    1    1.98816813E-04  -3.79727922E-13
   -5    3    0    2    1    7.27250451E-04   3.05080419E-13
   -5    3    0    1    2   -4.09528868E-04  -3.75648309E-13
   -5    3    0    2    2    1.98816811E-04   3.85164327E-13
   -5    4    0    1    1    2.97440423E-04   7.14562313E-13
   -5    4    0    2    1   -1.04224007E-03   4.98369966E-13
   -5    4    0    1    2    4.77649897E-04   4.33942012E-13
   -5    4    0    2    2    2.97440426E-04  -7.10956129E-13
   -5    5    0    1    1   -6.83465753E-04  -7.85010133E-13
   -5    5    0    2    1   -2.63703383E-04  -4.57019051E-13
   -5    5    0    1    2    1.17260618E-03   1.33815925E-12
   -5    5    0    2    2   -6.83465752E-04   7.84697405E-13
   -5    6    0    1    1   -3.55541661E-04  -7.66463998E-13
   -5    6    0    2    1    4.23403112E-04  -2.19548393E-13
   -5    6    0    1    2    1.02741305E-03  -1.05160789E-12
   -5    6    0    2    2   -3.55541659E-04   7.58962830E-13
   -5    7    0    1    1    3.50391764E-04   8.50672620E-13
   -5    7    0    2    1   -1.20106005E-03  -2.81643159E-13
   -5    7    0    1    2    1.02740915E-03  -5.73652625E-13
   -5    7    0    2    2    3.50391764E-04  -8.48756472E-13
   -4  -11    0    1    1    3.65702568E-04   2.27069858E-12
   -4  -11    0    2    1   -1.78460055E-03   1.19486782E-12
   -4  -11    0    1    2    6.97232641E-04  -1.49236722E-12
   -4  -11    0    2    2    3.65702568E-04  -2.26604780E-12
   -4  -10    0    1    1   -3.83192219E-04  -8.60055898E-13
   -4  -10    0    2    1   -2.98580504E-04   1.45238035E-12
   -4  -10    0    1    2    4.77682599E-04  -1.15323145E-13
   -4  -10    0    2    2   -3.83192220E-04   8.69450301E-13
   -4   -9    0    1    1    2.97440496E-04  -1.16230629E-12
   -4   -9    0    2    1    4.79255690E-04   7.25657844E-13
   -4   -9    0    1    2   -5.14347641E-04  -5.03793228E-13
   -4   -9    0    2    2    2.97440496E-04   1.14910409E-12
   -4   -8    0    1    1    1.34955445E-03   2.63408524E-13
   -4   -8    0    2    1   -1.04217191E-03   6.18440465E-13
   -4   -8    0    1    2   -1.44532923E-03   1.37837385E-13
   -4   -8    0    2    2    1.34955445E-03  -2.53718887E-13
   -4   -7    0    1    1    5.57233027E-04  -1.53363698E-12
   -4   -7    0    2    1   -7.41733791E-05   1.84802761E-13
   -4   -7    0    1    2   -8.51196895E-04  -5.88240627E-13
   -4   -7    0    2    2    5.57233026E-04   1.52070438E-12
   -4   -6    0    1    1   -3.23858705E-04  -7.52546044E-13
   -4   -6    0    2    1    2.38374015E-03  -1.37790421E-13
   -4   -6    0    1    2   -3.52856439E-04   7.86162534E-13
   -4   -6    0    2    2   -3.23858703E-04   7.56711732E-13
   -4   -5    0    1    1    6.16205110E-04  -8.33942037E-13
   -4   -5    0    2    1    1.34215836E-03  -1.49291476E-12
   -4   -5    0    1    2   -1.43750040E-03   2.41245456E-13
   -4   -5    0    2    2    6.16205111E-04   8.44555723E-13
   -4   -4    0    1    1    1.38296175E-03  -3.88544452E-13
   -4   -4    0    2    1   -5.01322336E-04  -4.10637040E-13
   -4   -4    0    1    2   -5.01322337E-04   1.32281554E-12
   -4   -4    0    2    2    1.38296175E-03   3.82377158E-13
   -4   -3    0    1    1   -6.73927982E-04  -6.95895821E-14
   -4   -3    0    2    1   -2.36287975E-04  -4.48830589E-13
   -4   -3    0    1    2    5.35783111E-04   9.18709492E-13
   -4   -3    0    2    2   -6.73927980E-04   6.85464370E-14
   -4   -2    0    1    1    1.53283375E-03   4.66874071E-13
   -4   -2    0    2    1   -1.24385728E-03   2.33710638E-13
   -4   -2    0    1    2    5.35723438E-04   1.80633581E-12
   -4   -2    0    2    2    1.53283375E-03  -4.70607946E-13
   -4   -1    0    1    1   -6.73925275E-04   3.55126566E-13
   -4   -1    0    2    1   -1.24381167E-03  -1.26100160E-12
   -4   -1    0    1    2   -5.01420685E-04  -1.98001376E-14
   -4   -1    0    2    2   -6.73925273E-04  -3.49757571E-13
   -4    0    0    1    1    1.38296648E-03  -1.08149962E-12
   -4    0    0    2    1   -2.36307895E-04   7.81595349E-13
   -4    0    0    1    2   -1.43746915E-03  -8.81564027E-13
   -4    0    0    2    2    1.38296648E-03   1.08959154E-12
   -4    1    0    1    1    6.16210772E-04   4.69172662E-13
   -4    1    0    2    1   -5.01556209E-04  -1.83117586E-13
   -4    1    0    1    2   -3.52810318E-04  -7.23147087E-13
   -4    1    0    2    2    6.16210770E-04  -4.79612513E-13
   -4    2    0    1    1   -3.23857907E-04   2.80347971E-13
   -4    2    0    2    1    1.34200555E-03  -4.63728875E-14
   -4    2    0    1    2   -8.51308788E-04  -9.17506258E-13
   -4    2    0    2    2   -3.23857905E-04  -2.84862014E-13
   -4    3    0    1    1    5.57232793E-04  -9.26992653E-13
   -4    3    0    2    1    2.38381293E-03   7.95881705E-14
   -4    3    0    1    2   -1.44534988E-03  -1.52965973E-13
   -4    3    0    2    2    5.57232791E-04   9.27259636E-13
   -4    4    0    1    1    1.34955403E-03  -5.11147179E-13
   -4    4    0    2    1   -7.40788844E-05   8.09483412E-13
   -4    4    0    1    2   -5.14248994E-04  -1.70426047E-13
   -4    4    0    2    2    1.34955403E-03   5.24148179E-13
   -4    5    0    1    1    2.97440425E-04  -4.11545430E-13
   -4    5    0    2    1   -1.04224007E-03  -5.48983825E-13
   -4    5    0    1    2    4.77649898E-04  -7.62583590E-14
   -4    5    0    2    2    2.97440424E-04   4.01621045E-13
   -4    6    0    1    1   -3.83191916E-04  -1.36939803E-12
   -4    6    0    2    1    4.79264781E-04   1.18799555E-12
   -4    6    0    1    2    6.97085324E-04  -3.52924418E-13
   -4    6    0    2    2   -3.83191919E-04   1.37519083E-12
   -4    7    0    1    1    3.65702770E-04   5.01966789E-13
   -4    7    0    2    1   -2.98396320E-04   9.94862843E-13
   -4    7    0    1    2    6.84136294E-04  -4.26317558E-13
   -4    7    0    2    2    3.65702770E-04  -5.10088882E-13
   -3  -11    0    1    1    4.86680812E-04   5.67668909E-14
   -3  -11    0    2    1   -1.03423343E-03  -3.39842599E-13
   -3  -11    0    1    2    3.97630710E-04  -1.71768367E-12
   -3  -11    0    2    2    4.86680815E-04  -6.04485166E-14
   -3  -10    0    1    1    1.22025440E-04  -4.15938716E-13
   -3  -10    0    2    1   -1.03433552E-03  -4.55948682E-14
   -3  -10    0    1    2   -2.62847241E-04  -1.41253123E-12
   -3  -10    0    2    2    1.22025438E-04   4.13675138E-13
   -3   -9    0    1    1   -2.26494039E-04  -7.50012894E-13
   -3   -9    0    2    1    9.04240538E-04   1.57129196E-12
   -3   -9    0    1    2   -4.09611692E-04  -7.17737665E-13
   -3   -9    0    2    2   -2.26494041E-04   7.36822710E-13
   -3   -8    0    1    1    1.98816642E-04   5.28142206E-13
   -3   -8    0    2    1    1.02928097E-03   3.82678952E-13
   -3   -8    0    1    2   -1.44534814E-03  -5.30754451E-13
   -3   -8    0    2    2    1.98816644E-04  -5.16263320E-13
   -3   -7    0    1    1    5.57232898E-04   6.62135655E-13
   -3   -7    0    2    1    7.27195784E-04   1.54747064E-13
   -3   -7    0    1    2   -3.12030342E-03  -4.87174880E-13
   -3   -7    0    2    2    5.57232897E-04  -6.65429682E-13
   -3   -6    0    1    1    2.02378824E-04   9.77205840E-13
   -3   -6    0    2    1    2.38371613E-03   9.54514837E-13
   -3   -6    0    1    2   -2.62868013E-03   1.21369832E-13
   -3   -6    0    2    2    2.02378822E-04  -9.68110637E-13
   -3   -5    0    1    1    6.00464801E-05   1.35418770E-15
   -3   -5    0    2    1    2.64855620E-03   2.57304450E-12
   -3   -5    0    1    2   -6.39308264E-04   2.97446866E-13
   -3   -5    0    2    2    6.00464802E-05  -9.60568730E-15
   -3   -4    0    1    1   -6.73927982E-04  -1.32614738E-12
   -3   -4    0    2    1    5.35783113E-04   3.03329570E-13
   -3   -4    0    1    2   -2.36287979E-04  -1.56718089E-13
   -3   -4    0    2    2   -6.73927981E-04   1.32899955E-12
   -3   -3    0    1    1   -2.75152596E-03  -1.85846376E-12
   -3   -3    0    2    1    2.59347064E-03  -6.80588833E-13
   -3   -3    0    1    2    2.59347063E-03  -2.74873144E-13
   -3   -3    0    2    2   -2.75152596E-03   1.86780960E-12
   -3   -2    0    1    1    3.63073615E-03   2.50689332E-13
   -3   -2    0    2    1    7.30154795E-03   1.37485093E-13
   -3   -2    0    1    2   -3.40003834E-03   1.88523886E-13
   -3   -2    0    2    2    3.63073615E-03  -2.49220571E-13
   -3   -1    0    1    1    3.63073217E-03   2.42866514E-12
   -3   -1    0    2    1   -2.81914912E-02  -1.42875871E-12
   -3   -1    0    1    2    2.59347894E-03   6.25362566E-13
   -3   -1    0    2    2    3.63073217E-03  -2.43756302E-12
   -3    0    0    1    1   -2.75152735E-03  -1.78264380E-12
   -3    0    0    2    1    7.30090632E-03  -1.67125700E-13
   -3    0    0    1    2   -2.36276754E-04  -1.11318756E-12
   -3    0    0    2    2   -2.75152735E-03   1.77139512E-12
   -3    1    0    1    1   -6.73925476E-04  -1.95066156E-13
   -3    1    0    2    1    2.59335549E-03   5.94052533E-13
   -3    1    0    1    2   -6.39121066E-04   1.31217442E-12
   -3    1    0    2    2   -6.73925477E-04   2.00056934E-13
   -3    2    0    1    1    6.00473045E-05  -8.13287889E-13
   -3    2    0    2    1    5.35709542E-04  -1.12829781E-12
   -3    2    0    1    2   -2.62863789E-03   1.22460179E-13
   -3    2    0    2    2    6.00473045E-05   8.18127262E-13
   -3    3    0    1    1    2.02378964E-04   7.00883695E-13
   -3    3    0    2    1    2.64847582E-03  -3.84491560E-13
   -3    3    0    1    2   -3.12040883E-03  -2.66235897E-13
   -3    3    0    2    2    2.02378967E-04  -7.00605549E-13
   -3    4    0    1    1    5.57232792E-04  -8.70788817E-14
   -3    4    0    2    1    2.38381293E-03   4.64170986E-13
   -3    4    0    1    2   -1.44534988E-03  -3.39429777E-13
   -3    4    0    2    2    5.57232792E-04   8.49128841E-14
   -3    5    0    1    1    1.98816813E-04   1.29393013E-13
   -3    5    0    2    1    7.27250451E-04  -8.37071255E-14
   -3    5    0    1    2   -4.09528866E-04   2.89462251E-13
   -3    5    0    2    2    1.98816812E-04  -1.29578292E-13
   -3    6    0    1    1   -2.26493571E-04   3.55303375E-13
   -3    6    0    2    1    1.02916771E-03  -7.73562424E-13
   -3    6    0    1    2   -2.62936779E-04  -1.57939809E-12
   -3    6    0    2    2   -2.26493572E-04  -3.45454371E-13
   -3    7    0    1    1    1.22025830E-04  -2.75330076E-13
   -3    7    0    2    1    9.04263311E-04   3.63984471E-13
   -3    7    0    1    2    3.97516015E-04  -7.77889747E-13
   -3    7    0    2    2    1.22025828E-04   2.74928533E-13
   -3    8    0    1    1    4.86680812E-04   5.66030356E-14
   -3    8    0    2    1   -1.03423443E-03  -3.39518443E-13
   -3    8    0    1    2    3.97631072E-04  -1.71710033E-12
   -3    8    0    2    2    4.86680815E-04  -6.06092962E-14
   -2  -10    0    1    1   -1.74734607E-04  -1.13567977E-12
   -2  -10    0    2    1   -4.17278503E-04  -2.38020178E-12
   -2  -10    0    1    2   -1.77757669E-04   7.63629922E-14
   -2  -10    0    2    2   -1.74734608E-04   1.13259046E-12
   -2   -9    0    1    1    6.00355887E-05   1.36886490E-12
   -2   -9    0    2    1    1.66154568E-04  -5.74757311E-13
   -2   -9    0    1    2   -8.32086431E-04  -8.24291659E-13
   -2   -9    0    2    2    6.00355852E-05  -1.36646043E-12
   -2   -8    0    1    1   -5.90228549E-04   1.53244056E-12
   -2   -8    0    2    1    1.03485186E-03   2.12420742E-13
   -2   -8    0    1    2    2.73967712E-04   2.06423678E-13
   -2   -8    0    2    2   -5.90228546E-04  -1.54083423E-12
   -2   -7    0    1    1   -9.64584786E-04  -2.96801068E-13
   -2   -7    0    2    1    1.22746542E-03  -6.08159382E-13
   -2   -7    0    1    2   -8.51216768E-04  -1.15529673E-13
   -2   -7    0    2    2   -9.64584784E-04   2.97650481E-13
   -2   -6    0    1    1   -3.23857954E-04   4.48786208E-14
   -2   -6    0    2    1    1.20631307E-03   4.00581403E-13
   -2   -6    0    1    2   -2.62864803E-03  -2.73593749E-12
   -2   -6    0    2    2   -3.23857956E-04  -4.70069790E-14
   -2   -5    0    1    1    6.00473906E-05   1.15212444E-12
   -2   -5    0    2    1    1.34208491E-03   1.28324715E-12
   -2   -5    0    1    2   -2.05077636E-03  -1.78904577E-12
   -2   -5    0    2    2    6.00473871E-05  -1.15989412E-12
   -2   -4    0    1    1    1.53283375E-03  -1.56993154E-13
   -2   -4    0    2    1    5.35723437E-04   1.33311405E-12
   -2   -4    0    1    2   -1.24385728E-03   1.09676645E-12
   -2   -4    0    2    2    1.53283375E-03   1.59598314E-13
   -2   -3    0    1    1    3.63073615E-03  -2.38751105E-13
   -2   -3    0    2    1   -3.40003834E-03  -1.90235452E-12
   -2   -3    0    1    2    7.30154795E-03   1.25366026E-12
   -2   -3    0    2    2    3.63073615E-03   2.35934589E-13
   -2   -2    0    1    1   -2.04045967E-02  -6.03714991E-13
   -2   -2    0    2    1   -8.09430990E-03  -1.34076055E-12
   -2   -2    0    1    2   -8.09430990E-03   9.81975204E-13
   -2   -2    0    2    2   -2.04045967E-02   6.13933858E-13
   -2   -1    0    1    1    5.67238870E-02   2.12955517E-12
   -2   -1    0    2    1    1.45495885E-02  -9.59919379E-13
   -2   -1    0    1    2   -8.09313777E-03   1.87323459E-12
   -2   -1    0    2    2    5.67238870E-02  -2.11776842E-12
   -2    0    0    1    1   -2.04046012E-02   1.63271371E-12
   -2    0    0    2    1    1.45454779E-02  -1.59801455E-12
   -2    0    0    1    2    7.30230197E-03  -8.10756198E-13
   -2    0    0    2    2   -2.04046012E-02  -1.63506297E-12
   -2    1    0    1    1    3.63073150E-03  -6.76729581E-14
   -2    1    0    2    1   -8.09502235E-03  -2.73513606E-13
   -2    1    0    1    2   -1.24384536E-03   5.74395983E-13
   -2    1    0    2    2    3.63073150E-03   5.79885294E-14
   -2    2    0    1    1    1.53283332E-03  -3.06833785E-13
   -2    2    0    2    1   -3.39993771E-03   1.13674377E-13
   -2    2    0    1    2   -2.05075146E-03   1.84440205E-13
   -2    2    0    2    2    1.53283332E-03   3.08573976E-13
   -2    3    0    1    1    6.00473060E-05  -4.75493047E-13
   -2    3    0    2    1    5.35709541E-04  -1.64316565E-13
   -2    3    0    1    2   -2.62863789E-03   1.52684117E-14
   -2    3    0    2    2    6.00473030E-05   4.69977569E-13
   -2    4    0    1    1   -3.23857907E-04   1.61225383E-12
   -2    4    0    2    1    1.34200555E-03   4.78077755E-13
   -2    4    0    1    2   -8.51308788E-04  -5.58745638E-13
   -2    4    0    2    2   -3.23857905E-04  -1.60681563E-12
   -2    5    0    1    1   -9.64584540E-04  -8.06904966E-13
   -2    5    0    2    1    1.20640318E-03  -7.80091938E-13
   -2    5    0    1    2    2.74013689E-04   1.41106067E-12
   -2    5    0    2    2   -9.64584541E-04   7.91291174E-13
   -2    6    0    1    1   -5.90228438E-04  -6.28255521E-13
   -2    6    0    2    1    1.22746826E-03  -6.36130520E-13
   -2    6    0    1    2   -8.31980461E-04   2.00416896E-13
   -2    6    0    2    2   -5.90228438E-04   6.31158199E-13
   -2    7    0    1    1    6.00353620E-05   9.78392755E-13
   -2    7    0    2    1    1.03475164E-03   5.69127979E-13
   -2    7    0    1    2   -1.77814173E-04   1.11437041E-12
   -2    7    0    2    2    6.00353649E-05  -9.69683138E-13
   -2    8    0    1    1   -1.74734791E-04   7.37885829E-13
   -2    8    0    2    1    1.66180322E-04  -1.45254281E-12
   -2    8    0    1    2    1.12357443E-03   1.57239866E-12
   -2    8    0    2    2   -1.74734787E-04  -7.26307197E-13
   -1  -10    0    1    1   -1.06323175E-03  -7.21969228E-13
   -1  -10    0    2    1    4.91495607E-04   5.57023981E-13
   -1  -10    0    1    2    1.15072909E-03   1.21645116E-12
   -1  -10    0    2    2   -1.06323175E-03   7.26917369E-13
   -1   -9    0    1    1    1.11498726E-04  -6.12029790E-13
   -1   -9    0    2    1    4.91339437E-04   7.84339373E-13
   -1   -9    0    1    2   -1.27279173E-03  -5.25972309E-13
   -1   -9    0    2    2    1.11498722E-04   6.17710886E-13
   -1   -8    0    1    1    7.11291283E-04   8.18516066E-13
   -1   -8    0    2    1   -5.65217831E-04  -3.06723215E-13
   -1   -8    0    1    2   -3.10709186E-04   5.34781304E-13
   -1   -8    0    2    2    7.11291287E-04  -8.16832140E-13
   -1   -7    0    1    1   -6.63757878E-04  -1.09370337E-12
   -1   -7    0    2    1   -1.32368894E-04   6.49472052E-13
   -1   -7    0    1    2    1.29861521E-03  -2.82059383E-13
   -1   -7    0    2    2   -6.63757876E-04   1.10164391E-12
   -1   -6    0    1    1   -4.76254901E-04  -4.39600160E-13
   -1   -6    0    2    1    3.69139942E-04   9.96501664E-13
   -1   -6    0    1    2   -3.52836273E-04   5.65684741E-14
   -1   -6    0    2    2   -4.76254903E-04   4.38215029E-13
   -1   -5    0    1    1    6.16210794E-04   1.06314810E-12
   -1   -5    0    2    1   -7.60858023E-04   6.02764671E-13
   -1   -5    0    1    2   -6.39253891E-04  -7.97404648E-13
   -1   -5    0    2    2    6.16210791E-04  -1.07103809E-12
   -1   -4    0    1    1   -6.73925273E-04   1.27979473E-12
   -1   -4    0    2    1   -5.01420684E-04  -8.53832561E-13
   -1   -4    0    1    2   -1.24381166E-03   8.14354891E-13
   -1   -4    0    2    2   -6.73925274E-04  -1.27631895E-12
   -1   -3    0    1    1    3.63073217E-03  -1.35772311E-12
   -1   -3    0    2    1    2.59347894E-03  -1.40243964E-12
   -1   -3    0    1    2   -2.81914912E-02   1.47925045E-12
   -1   -3    0    2    2    3.63073217E-03   1.35538200E-12
   -1   -2    0    1    1    5.67238870E-02  -5.63312608E-13
   -1   -2    0    2    1   -8.09313777E-03   4.96412349E-13
   -1   -2    0    1    2    1.45495885E-02  -1.57957705E-13
   -1   -2    0    2    2    5.67238870E-02   5.59764135E-13
   -1   -1    0    1    1    2.35704722E-01  -7.33656852E-13
   -1   -1    0    2    1   -2.83783701E-01   7.16556766E-13
   -1   -1    0    1    2   -2.83783701E-01   1.25184209E-12
   -1   -1    0    2    2    2.35704722E-01   7.29359934E-13
   -1    0    0    1    1    2.35704718E-01   1.36294567E-12
   -1    0    0    2    1   -3.00667926E+00  -2.12878562E-12
   -1    0    0    1    2    1.45546338E-02   9.34782529E-13
   -1    0    0    2    2    2.35704718E-01  -1.36349736E-12
   -1    1    0    1    1    5.67238834E-02  -3.85560187E-13
   -1    1    0    2    1   -2.83795117E-01  -5.24311642E-13
   -1    1    0    1    2   -2.81916453E-02  -1.63259692E-13
   -1    1    0    2    2    5.67238834E-02   3.96147595E-13
   -1    2    0    1    1    3.63073150E-03  -4.12216485E-13
   -1    2    0    2    1   -8.09502235E-03   5.28139063E-13
   -1    2    0    1    2   -1.24384536E-03   3.55695397E-13
   -1    2    0    2    2    3.63073150E-03   4.21383322E-13
   -1    3    0    1    1   -6.73925477E-04  -6.04447741E-14
   -1    3    0    2    1    2.59335549E-03  -8.39889803E-13
   -1    3    0    1    2   -6.39121065E-04  -1.26702840E-13
   -1    3    0    2    2   -6.73925476E-04   5.00892093E-14
   -1    4    0    1    1    6.16210771E-04   2.32635294E-13
   -1    4    0    2    1   -5.01556210E-04  -2.34436929E-13
   -1    4    0    1    2   -3.52810315E-04   3.64286043E-13
   -1    4    0    2    2    6.16210771E-04  -2.29337160E-13
   -1    5    0    1    1   -4.76254734E-04  -8.50089409E-14
   -1    5    0    2    1   -7.60927318E-04   3.92361883E-13
   -1    5    0    1    2    1.29851978E-03   7.57163051E-13
   -1    5    0    2    2   -4.76254734E-04   8.41848367E-14
   -1    6    0    1    1   -6.63757868E-04  -1.03360016E-12
   -1    6    0    2    1    3.69269632E-04   4.24263730E-13
   -1    6    0    1    2   -3.10670155E-04  -1.05090511E-12
   -1    6    0    2    2   -6.63757872E-04   1.02991033E-12
   -1    7    0    1    1    7.11290789E-04  -1.94872780E-12
   -1    7    0    2    1   -1.32329967E-04   2.31045492E-12
   -1    7    0    1    2   -1.27274561E-03  -5.90972513E-13
   -1    7    0    2    2    7.11290788E-04   1.94890650E-12
   -1    8    0    1    1    1.11498106E-04   5.85743030E-13
   -1    8    0    2    1   -5.65208097E-04   5.33248783E-13
   -1    8    0    1    2    1.15070396E-03   1.43027944E-12
   -1    8    0    2    2    1.11498110E-04  -5.96019854E-13
   -1    9    0    1    1   -1.06323175E-03  -7.22332097E-13
   -1    9    0    2    1    4.91365200E-04   5.58462982E-13
   -1    9    0    1    2    1.15073907E-03   1.21793610E-12
   -1    9    0    2    2   -1.06323175E-03   7.26552964E-13
    0   -9    0    1    1   -8.50654551E-04  -1.17110155E-12
    0   -9    0    2    1    1.61385363E-03   1.72064080E-12
    0   -9    0    1    2   -2.88244747E-04  -2.06579091E-13
    0   -9    0    2    2   -8.50654555E-04   1.17819281E-12
    0   -8    0    1    1    1.22204867E-03   7.28478612E-13
    0   -8    0    2    1   -2.88279799E-04   1.11664389E-13
    0   -8    0    1    2   -1.56525429E-03  -3.65966772E-13
    0   -8    0    2    2    1.22204867E-03  -7.27699477E-13
    0   -7    0    1    1    7.21331741E-04  -5.31527242E-13
    0   -7    0    2    1   -1.56528470E-03   1.42786386E-12
    0   -7    0    1    2    2.65346265E-04  -1.35671556E-12
    0   -7    0    2    2    7.21331741E-04   5.32962262E-13
    0   -6    0    1    1   -4.28434312E-04  -2.53273786E-13
    0   -6    0    2    1    2.65212312E-04   1.79410237E-12
    0   -6    0    1    2    2.29167549E-04  -1.75278705E-12
    0   -6    0    2    2   -4.28434315E-04   2.44394750E-13
    0   -5    0    1    1    9.48870407E-04   1.20498107E-12
    0   -5    0    2    1    2.29111924E-04   9.75807356E-13
    0   -5    0    1    2   -1.43762121E-03  -2.09891724E-13
    0   -5    0    2    2    9.48870406E-04  -1.19769302E-12
    0   -4    0    1    1    1.38296648E-03   8.69414415E-13
    0   -4    0    2    1   -1.43746915E-03   8.13774259E-13
    0   -4    0    1    2   -2.36307894E-04   1.25238891E-12
    0   -4    0    2    2    1.38296648E-03  -8.72138103E-13
    0   -3    0    1    1   -2.75152735E-03  -1.21947041E-12
    0   -3    0    2    1   -2.36276754E-04  -1.14293769E-12
    0   -3    0    1    2    7.30090632E-03   4.46066620E-13
    0   -3    0    2    2   -2.75152735E-03   1.22424030E-12
    0   -2    0    1    1   -2.04046012E-02  -5.48751207E-13
    0   -2    0    2    1    7.30230197E-03   3.63891386E-14
    0   -2    0    1    2    1.45454779E-02  -1.27254787E-12
    0   -2    0    2    2   -2.04046012E-02   5.42991623E-13
    0   -1    0    1    1    2.35704718E-01  -2.86424414E-13
    0   -1    0    2    1    1.45546338E-02   6.05430746E-13
    0   -1    0    1    2   -3.00667926E+00   1.59644377E-12
    0   -1    0    2    2    2.35704718E-01   2.88549560E-13
    0    0    0    1    1    1.48268851E-01   0.00000000E+00
    0    0    0    2    1   -3.00666775E+00  -2.05286742E-12
    0    0    0    1    2   -3.00666775E+00   2.05286742E-12
    0    0    0    2    2    1.48268851E-01   0.00000000E+00
    0    1    0    1    1    2.35704718E-01   2.86424414E-13
    0    1    0    2    1   -3.00667926E+00  -1.59644377E-12
    0    1    0    1    2    1.45546338E-02  -6.05430746E-13
    0    1    0    2    2    2.35704718E-01  -2.88549560E-13
    0    2    0    1    1   -2.04046012E-02   5.48751207E-13
    0    2    0    2    1    1.45454779E-02   1.27254787E-12
    0    2    0    1    2    7.30230197E-03  -3.63891386E-14
    0    2    0    2    2   -2.04046012E-02  -5.42991623E-13
    0    3    0    1    1   -2.75152735E-03   1.21947041E-12
    0    3    0    2    1    7.30090632E-03  -4.46066620E-13
    0    3    0    1    2   -2.36276754E-04   1.14293769E-12
    0    3    0    2    2   -2.75152735E-03  -1.22424030E-12
    0    4    0    1    1    1.38296648E-03  -8.69414415E-13
    0    4    0    2    1   -2.36307894E-04  -1.25238891E-12
    0    4    0    1    2   -1.43746915E-03  -8.13774259E-13
    0    4    0    2    2    1.38296648E-03   8.72138103E-13
    0    5    0    1    1    9.48870407E-04  -1.20498107E-12
    0    5    0    2    1   -1.43762121E-03   2.09891724E-13
    0    5    0    1    2    2.29111924E-04  -9.75807356E-13
    0    5    0    2    2    9.48870406E-04   1.19769302E-12
    0    6    0    1    1   -4.28434312E-04   2.53273786E-13
    0    6    0    2    1    2.29167549E-04   1.75278705E-12
    0    6    0    1    2    2.65212312E-04  -1.79410237E-12
    0    6    0    2    2   -4.28434315E-04  -2.44394750E-13
    0    7    0    1    1    7.21331741E-04   5.31527242E-13
    0    7    0    2    1    2.65346265E-04   1.35671556E-12
    0    7    0    1    2   -1.56528470E-03  -1.42786386E-12
    0    7    0    2    2    7.21331741E-04  -5.32962262E-13
    0    8    0    1    1    1.22204867E-03  -7.28478612E-13
    0    8    0    2    1   -1.56525429E-03   3.65966772E-13
    0    8    0    1    2   -2.88279799E-04  -1.11664389E-13
    0    8    0    2    2    1.22204867E-03   7.27699477E-13
    0    9    0    1    1   -8.50654551E-04   1.17110155E-12
    0    9    0    2    1   -2.88244747E-04   2.06579091E-13
    0    9    0    1    2    1.61385363E-03  -1.72064080E-12
    0    9    0    2    2   -8.50654555E-04  -1.17819281E-12
    1   -9    0    1    1   -1.06323175E-03   7.22332097E-13
    1   -9    0    2    1    1.15073907E-03  -1.21793610E-12
    1   -9    0    1    2    4.91365200E-04  -5.58462982E-13
    1   -9    0    2    2   -1.06323175E-03  -7.26552964E-13
    1   -8    0    1    1    1.11498106E-04  -5.85743030E-13
    1   -8    0    2    1    1.15070396E-03  -1.43027944E-12
    1   -8    0    1    2   -5.65208097E-04  -5.33248783E-13
    1   -8    0    2    2    1.11498110E-04   5.96019854E-13
    1   -7    0    1    1    7.11290789E-04   1.94872780E-12
    1   -7    0    2    1   -1.27274561E-03   5.90972513E-13
    1   -7    0    1    2   -1.32329967E-04  -2.31045492E-12
    1   -7    0    2    2    7.11290788E-04  -1.94890650E-12
    1   -6    0    1    1   -6.63757868E-04   1.03360016E-12
    1   -6    0    2    1   -3.10670155E-04   1.05090511E-12
    1   -6    0    1    2    3.69269632E-04  -4.24263730E-13
    1   -6    0    2    2   -6.63757872E-04  -1.02991033E-12
    1   -5    0    1    1   -4.76254734E-04   8.50089409E-14
    1   -5    0    2    1    1.29851978E-03  -7.57163051E-13
    1   -5    0    1    2   -7.60927318E-04  -3.92361883E-13
    1   -5    0    2    2   -4.76254734E-04  -8.41848367E-14
    1   -4    0    1    1    6.16210771E-04  -2.32635294E-13
    1   -4    0    2    1   -3.52810315E-04  -3.64286043E-13
    1   -4    0    1    2   -5.01556210E-04   2.34436929E-13
    1   -4    0    2    2    6.16210771E-04   2.29337160E-13
    1   -3    0    1    1   -6.73925477E-04   6.04447741E-14
    1   -3    0    2    1   -6.39121065E-04   1.26702840E-13
    1   -3    0    1    2    2.59335549E-03   8.39889803E-13
    1   -3    0    2    2   -6.73925476E-04  -5.00892093E-14
    1   -2    0    1    1    3.63073150E-03   4.12216485E-13
    1   -2    0    2    1   -1.24384536E-03  -3.55695397E-13
    1   -2    0    1    2   -8.09502235E-03  -5.28139063E-13
    1   -2    0    2    2    3.63073150E-03  -4.21383322E-13
    1   -1    0    1    1    5.67238834E-02   3.85560187E-13
    1   -1    0    2    1   -2.81916453E-02   1.63259692E-13
    1   -1    0    1    2   -2.83795117E-01   5.24311642E-13
    1   -1    0    2    2    5.67238834E-02  -3.96147595E-13
    1    0    0    1    1    2.35704718E-01  -1.36294567E-12
    1    0    0    2    1    1.45546338E-02  -9.34782529E-13
    1    0    0    1    2   -3.00667926E+00   2.12878562E-12
    1    0    0    2    2    2.35704718E-01   1.36349736E-12
    1    1    0    1    1    2.35704722E-01   7.33656852E-13
    1    1    0    2    1   -2.83783701E-01  -1.25184209E-12
    1    1    0    1    2   -2.83783701E-01  -7.16556766E-13
    1    1    0    2    2    2.35704722E-01  -7.29359934E-13
    1    2    0    1    1    5.67238870E-02   5.63312608E-13
    1    2    0    2    1    1.45495885E-02   1.57957705E-13
    1    2    0    1    2   -8.09313777E-03  -4.96412349E-13
    1    2    0    2    2    5.67238870E-02  -5.59764135E-13
    1    3    0    1    1    3.63073217E-03   1.35772311E-12
    1    3    0    2    1   -2.81914912E-02  -1.47925045E-12
    1    3    0    1    2    2.59347894E-03   1.40243964E-12
    1    3    0    2    2    3.63073217E-03  -1.35538200E-12
    1    4    0    1    1   -6.73925273E-04  -1.27979473E-12
    1    4    0    2    1   -1.24381166E-03  -8.14354891E-13
    1    4    0    1    2   -5.01420684E-04   8.53832561E-13
    1    4    0    2    2   -6.73925274E-04   1.27631895E-12
    1    5    0    1    1    6.16210794E-04  -1.06314810E-12
    1    5    0    2    1   -6.39253891E-04   7.97404648E-13
    1    5    0    1    2   -7.60858023E-04  -6.02764671E-13
    1    5    0    2    2    6.16210791E-04   1.07103809E-12
    1    6    0    1    1   -4.76254901E-04   4.39600160E-13
    1    6    0    2    1   -3.52836273E-04  -5.65684741E-14
    1    6    0    1    2    3.69139942E-04  -9.96501664E-13
    1    6    0    2    2   -4.76254903E-04  -4.38215029E-13
    1    7    0    1    1   -6.63757878E-04   1.09370337E-12
    1    7    0    2    1    1.29861521E-03   2.82059383E-13
    1    7    0    1    2   -1.32368894E-04  -6.49472052E-13
    1    7    0    2    2   -6.63757876E-04  -1.10164391E-12
    1    8    0    1    1    7.11291283E-04  -8.18516066E-13
    1    8    0    2    1   -3.10709186E-04  -5.34781304E-13
    1    8    0    1    2   -5.65217831E-04   3.06723215E-13
    1    8    0    2    2    7.11291287E-04   8.16832140E-13
    1    9    0    1    1    1.11498726E-04   6.12029790E-13
    1    9    0    2    1   -1.27279173E-03   5.25972309E-13
    1    9    0    1    2    4.91339437E-04  -7.84339373E-13
    1    9    0    2    2    1.11498722E-04  -6.17710886E-13
    1   10    0    1    1   -1.06323175E-03   7.21969228E-13
    1   10    0    2    1    1.15072909E-03  -1.21645116E-12
    1   10    0    1    2    4.91495607E-04  -5.57023981E-13
    1   10    0    2    2   -1.06323175E-03  -7.26917369E-13
    2   -8    0    1    1   -1.74734791E-04  -7.37885829E-13
    2   -8    0    2    1    1.12357443E-03  -1.57239866E-12
    2   -8    0    1    2    1.66180322E-04   1.45254281E-12
    2   -8    0    2    2   -1.74734787E-04   7.26307197E-13
    2   -7    0    1    1    6.00353620E-05  -9.78392755E-13
    2   -7    0    2    1   -1.77814173E-04  -1.11437041E-12
    2   -7    0    1    2    1.03475164E-03  -5.69127979E-13
    2   -7    0    2    2    6.00353649E-05   9.69683138E-13
    2   -6    0    1    1   -5.90228438E-04   6.28255521E-13
    2   -6    0    2    1   -8.31980461E-04  -2.00416896E-13
    2   -6    0    1    2    1.22746826E-03   6.36130520E-13
    2   -6    0    2    2   -5.90228438E-04  -6.31158199E-13
    2   -5    0    1    1   -9.64584540E-04   8.06904966E-13
    2   -5    0    2    1    2.74013689E-04  -1.41106067E-12
    2   -5    0    1    2    1.20640318E-03   7.80091938E-13
    2   -5    0    2    2   -9.64584541E-04  -7.91291174E-13
    2   -4    0    1    1   -3.23857907E-04  -1.61225383E-12
    2   -4    0    2    1   -8.51308788E-04   5.58745638E-13
    2   -4    0    1    2    1.34200555E-03  -4.78077755E-13
    2   -4    0    2    2   -3.23857905E-04   1.60681563E-12
    2   -3    0    1    1    6.00473060E-05   4.75493047E-13
    2   -3    0    2    1   -2.62863789E-03  -1.52684117E-14
    2   -3    0    1    2    5.35709541E-04   1.64316565E-13
    2   -3    0    2    2    6.00473030E-05  -4.69977569E-13
    2   -2    0    1    1    1.53283332E-03   3.06833785E-13
    2   -2    0    2    1   -2.05075146E-03  -1.84440205E-13
    2   -2    0    1    2   -3.39993771E-03  -1.13674377E-13
    2   -2    0    2    2    1.53283332E-03  -3.08573976E-13
    2   -1    0    1    1    3.63073150E-03   6.76729581E-14
    2   -1    0    2    1   -1.24384536E-03  -5.74395983E-13
    2   -1    0    1    2   -8.09502235E-03   2.73513606E-13
    2   -1    0    2    2    3.63073150E-03  -5.79885294E-14
    2    0    0    1    1   -2.04046012E-02  -1.63271371E-12
    2    0    0    2    1    7.30230197E-03   8.10756198E-13
    2    0    0    1    2    1.45454779E-02   1.59801455E-12
    2    0    0    2    2   -2.04046012E-02   1.63506297E-12
    2    1    0    1    1    5.67238870E-02  -2.12955517E-12
    2    1    0    2    1   -8.09313777E-03  -1.87323459E-12
    2    1    0    1    2    1.45495885E-02   9.59919379E-13
    2    1    0    2    2    5.67238870E-02   2.11776842E-12
    2    2    0    1    1   -2.04045967E-02   6.03714991E-13
    2    2    0    2    1   -8.09430990E-03  -9.81975204E-13
    2    2    0    1    2   -8.09430990E-03   1.34076055E-12
    2    2    0    2    2   -2.04045967E-02  -6.13933858E-13
    2    3    0    1    1    3.63073615E-03   2.38751105E-13
    2    3    0    2    1    7.30154795E-03  -1.25366026E-12
    2    3    0    1    2   -3.40003834E-03   1.90235452E-12
    2    3    0    2    2    3.63073615E-03  -2.35934589E-13
    2    4    0    1    1    1.53283375E-03   1.56993154E-13
    2    4    0    2    1   -1.24385728E-03  -1.09676645E-12
    2    4    0    1    2    5.35723437E-04  -1.33311405E-12
    2    4    0    2    2    1.53283375E-03  -1.59598314E-13
    2    5    0    1    1    6.00473906E-05  -1.15212444E-12
    2    5    0    2    1   -2.05077636E-03   1.78904577E-12
    2    5    0    1    2    1.34208491E-03  -1.28324715E-12
    2    5    0    2    2    6.00473871E-05   1.15989412E-12
    2    6    0    1    1   -3.23857954E-04  -4.48786208E-14
    2    6    0    2    1   -2.62864803E-03   2.73593749E-12
    2    6    0    1    2    1.20631307E-03  -4.00581403E-13
    2    6    0    2    2   -3.23857956E-04   4.70069790E-14
    2    7    0    1    1   -9.64584786E-04   2.96801068E-13
    2    7    0    2    1   -8.51216768E-04   1.15529673E-13
    2    7    0    1    2    1.22746542E-03   6.08159382E-13
    2    7    0    2    2   -9.64584784E-04  -2.97650481E-13
    2    8    0    1    1   -5.90228549E-04  -1.53244056E-12
    2    8    0    2    1    2.73967712E-04  -2.06423678E-13
    2    8    0    1    2    1.03485186E-03  -2.12420742E-13
    2    8    0    2    2   -5.90228546E-04   1.54083423E-12
    2    9    0    1    1    6.00355887E-05  -1.36886490E-12
    2    9    0    2    1   -8.32086431E-04   8.24291659E-13
    2    9    0    1    2    1.66154568E-04   5.74757311E-13
    2    9    0    2    2    6.00355852E-05   1.36646043E-12
    2   10    0    1    1   -1.74734607E-04   1.13567977E-12
    2   10    0    2    1   -1.77757669E-04  -7.63629922E-14
    2   10    0    1    2   -4.17278503E-04   2.38020178E-12
    2   10    0    2    2   -1.74734608E-04  -1.13259046E-12
    3   -8    0    1    1    4.86680812E-04  -5.66030356E-14
    3   -8    0    2    1    3.97631072E-04   1.71710033E-12
    3   -8    0    1    2   -1.03423443E-03   3.39518443E-13
    3   -8    0    2    2    4.86680815E-04   6.06092962E-14
    3   -7    0    1    1    1.22025830E-04   2.75330076E-13
    3   -7    0    2    1    3.97516015E-04   7.77889747E-13
    3   -7    0    1    2    9.04263311E-04  -3.63984471E-13
    3   -7    0    2    2    1.22025828E-04  -2.74928533E-13
    3   -6    0    1    1   -2.26493571E-04  -3.55303375E-13
    3   -6    0    2    1   -2.62936779E-04   1.57939809E-12
    3   -6    0    1    2    1.02916771E-03   7.73562424E-13
    3   -6    0    2    2   -2.26493572E-04   3.45454371E-13
    3   -5    0    1    1    1.98816813E-04  -1.29393013E-13
    3   -5    0    2    1   -4.09528866E-04  -2.89462251E-13
    3   -5    0    1    2    7.27250451E-04   8.37071255E-14
    3   -5    0    2    2    1.98816812E-04   1.29578292E-13
    3   -4    0    1    1    5.57232792E-04   8.70788817E-14
    3   -4    0    2    1   -1.44534988E-03   3.39429777E-13
    3   -4    0    1    2    2.38381293E-03  -4.64170986E-13
    3   -4    0    2    2    5.57232792E-04  -8.49128841E-14
    3   -3    0    1    1    2.02378964E-04  -7.00883695E-13
    3   -3    0    2    1   -3.12040883E-03   2.66235897E-13
    3   -3    0    1    2    2.64847582E-03   3.84491560E-13
    3   -3    0    2    2    2.02378967E-04   7.00605549E-13
    3   -2    0    1    1    6.00473045E-05   8.13287889E-13
    3   -2    0    2    1   -2.62863789E-03  -1.22460179E-13
    3   -2    0    1    2    5.35709542E-04   1.12829781E-12
    3   -2    0    2    2    6.00473045E-05  -8.18127262E-13
    3   -1    0    1    1   -6.73925476E-04   1.95066156E-13
    3   -1    0    2    1   -6.39121066E-04  -1.31217442E-12
    3   -1    0    1    2    2.59335549E-03  -5.94052533E-13
    3   -1    0    2    2   -6.73925477E-04  -2.00056934E-13
    3    0    0    1    1   -2.75152735E-03   1.78264380E-12
    3    0    0    2    1   -2.36276754E-04   1.11318756E-12
    3    0    0    1    2    7.30090632E-03   1.67125700E-13
    3    0    0    2    2   -2.75152735E-03  -1.77139512E-12
    3    1    0    1    1    3.63073217E-03  -2.42866514E-12
    3    1    0    2    1    2.59347894E-03  -6.25362566E-13
    3    1    0    1    2   -2.81914912E-02   1.42875871E-12
    3    1    0    2    2    3.63073217E-03   2.43756302E-12
    3    2    0    1    1    3.63073615E-03  -2.50689332E-13
    3    2    0    2    1   -3.40003834E-03  -1.88523886E-13
    3    2    0    1    2    7.30154795E-03  -1.37485093E-13
    3    2    0    2    2    3.63073615E-03   2.49220571E-13
    3    3    0    1    1   -2.75152596E-03   1.85846376E-12
    3    3    0    2    1    2.59347063E-03   2.74873144E-13
    3    3    0    1    2    2.59347064E-03   6.80588833E-13
    3    3    0    2    2   -2.75152596E-03  -1.86780960E-12
    3    4    0    1    1   -6.73927982E-04   1.32614738E-12
    3    4    0    2    1   -2.36287979E-04   1.56718089E-13
    3    4    0    1    2    5.35783113E-04  -3.03329570E-13
    3    4    0    2    2   -6.73927981E-04  -1.32899955E-12
    3    5    0    1    1    6.00464801E-05  -1.35418770E-15
    3    5    0    2    1   -6.39308264E-04  -2.97446866E-13
    3    5    0    1    2    2.64855620E-03  -2.57304450E-12
    3    5    0    2    2    6.00464802E-05   9.60568730E-15
    3    6    0    1    1    2.02378824E-04  -9.77205840E-13
    3    6    0    2    1   -2.62868013E-03  -1.21369832E-13
    3    6    0    1    2    2.38371613E-03  -9.54514837E-13
    3    6    0    2    2    2.02378822E-04   9.68110637E-13
    3    7    0    1    1    5.57232898E-04  -6.62135655E-13
    3    7    0    2    1   -3.12030342E-03   4.87174880E-13
    3    7    0    1    2    7.27195784E-04  -1.54747064E-13
    3    7    0    2    2    5.57232897E-04   6.65429682E-13
    3    8    0    1    1    1.98816642E-04  -5.28142206E-13
    3    8    0    2    1   -1.44534814E-03   5.30754451E-13
    3    8    0    1    2    1.02928097E-03  -3.82678952E-13
    3    8    0    2    2    1.98816644E-04   5.16263320E-13
    3    9    0    1    1   -2.26494039E-04   7.50012894E-13
    3    9    0    2    1   -4.09611692E-04   7.17737665E-13
    3    9    0    1    2    9.04240538E-04  -1.57129196E-12
    3    9    0    2    2   -2.26494041E-04  -7.36822710E-13
    3   10    0    1    1    1.22025440E-04   4.15938716E-13
    3   10    0    2    1   -2.62847241E-04   1.41253123E-12
    3   10    0    1    2   -1.03433552E-03   4.55948682E-14
    3   10    0    2    2    1.22025438E-04  -4.13675138E-13
    3   11    0    1    1    4.86680812E-04  -5.67668909E-14
    3   11    0    2    1    3.97630710E-04   1.71768367E-12
    3   11    0    1    2   -1.03423343E-03   3.39842599E-13
    3   11    0    2    2    4.86680815E-04   6.04485166E-14
    4   -7    0    1    1    3.65702770E-04  -5.01966789E-13
    4   -7    0    2    1    6.84136294E-04   4.26317558E-13
    4   -7    0    1    2   -2.98396320E-04  -9.94862843E-13
    4   -7    0    2    2    3.65702770E-04   5.10088882E-13
    4   -6    0    1    1   -3.83191916E-04   1.36939803E-12
    4   -6    0    2    1    6.97085324E-04   3.52924418E-13
    4   -6    0    1    2    4.79264781E-04  -1.18799555E-12
    4   -6    0    2    2   -3.83191919E-04  -1.37519083E-12
    4   -5    0    1    1    2.97440425E-04   4.11545430E-13
    4   -5    0    2    1    4.77649898E-04   7.62583590E-14
    4   -5    0    1    2   -1.04224007E-03   5.48983825E-13
    4   -5    0    2    2    2.97440424E-04  -4.01621045E-13
    4   -4    0    1    1    1.34955403E-03   5.11147179E-13
    4   -4    0    2    1   -5.14248994E-04   1.70426047E-13
    4   -4    0    1    2   -7.40788844E-05  -8.09483412E-13
    4   -4    0    2    2    1.34955403E-03  -5.24148179E-13
    4   -3    0    1    1    5.57232793E-04   9.26992653E-13
    4   -3    0    2    1   -1.44534988E-03   1.52965973E-13
    4   -3    0    1    2    2.38381293E-03  -7.95881705E-14
    4   -3    0    2    2    5.57232791E-04  -9.27259636E-13
    4   -2    0    1    1   -3.23857907E-04  -2.80347971E-13
    4   -2    0    2    1   -8.51308788E-04   9.17506258E-13
    4   -2    0    1    2    1.34200555E-03   4.63728875E-14
    4   -2    0    2    2   -3.23857905E-04   2.84862014E-13
    4   -1    0    1    1    6.16210772E-04  -4.69172662E-13
    4   -1    0    2    1   -3.52810318E-04   7.23147087E-13
    4   -1    0    1    2   -5.01556209E-04   1.83117586E-13
    4   -1    0    2    2    6.16210770E-04   4.79612513E-13
    4    0    0    1    1    1.38296648E-03   1.08149962E-12
    4    0    0    2    1   -1.43746915E-03   8.81564027E-13
    4    0    0    1    2   -2.36307895E-04  -7.81595349E-13
    4    0    0    2    2    1.38296648E-03  -1.08959154E-12
    4    1    0    1    1   -6.73925275E-04  -3.55126566E-13
    4    1    0    2    1   -5.01420685E-04   1.98001376E-14
    4    1    0    1    2   -1.24381167E-03   1.26100160E-12
    4    1    0    2    2   -6.73925273E-04   3.49757571E-13
    4    2    0    1    1    1.53283375E-03  -4.66874071E-13
    4    2    0    2    1    5.35723438E-04  -1.80633581E-12
    4    2    0    1    2   -1.24385728E-03  -2.33710638E-13
    4    2    0    2    2    1.53283375E-03   4.70607946E-13
    4    3    0    1    1   -6.73927982E-04   6.95895821E-14
    4    3    0    2    1    5.35783111E-04  -9.18709492E-13
    4    3    0    1    2   -2.36287975E-04   4.48830589E-13
    4    3    0    2    2   -6.73927980E-04  -6.85464370E-14
    4    4    0    1    1    1.38296175E-03   3.88544452E-13
    4    4    0    2    1   -5.01322337E-04  -1.32281554E-12
    4    4    0    1    2   -5.01322336E-04   4.10637040E-13
    4    4    0    2    2    1.38296175E-03  -3.82377158E-13
    4    5    0    1    1    6.16205110E-04   8.33942037E-13
    4    5    0    2    1   -1.43750040E-03  -2.41245456E-13
    4    5    0    1    2    1.34215836E-03   1.49291476E-12
    4    5    0    2    2    6.16205111E-04  -8.44555723E-13
    4    6    0    1    1   -3.23858705E-04   7.52546044E-13
    4    6    0    2    1   -3.52856439E-04  -7.86162534E-13
    4    6    0    1    2    2.38374015E-03   1.37790421E-13
    4    6    0    2    2   -3.23858703E-04  -7.56711732E-13
    4    7    0    1    1    5.57233027E-04   1.53363698E-12
    4    7    0    2    1   -8.51196895E-04   5.88240627E-13
    4    7    0    1    2   -7.41733791E-05  -1.84802761E-13
    4    7    0    2    2    5.57233026E-04  -1.52070438E-12
    4    8    0    1    1    1.34955445E-03  -2.63408524E-13
    4    8    0    2    1   -1.44532923E-03  -1.37837385E-13
    4    8    0    1    2   -1.04217191E-03  -6.18440465E-13
    4    8    0    2    2    1.34955445E-03   2.53718887E-13
    4    9    0    1    1    2.97440496E-04   1.16230629E-12
    4    9    0    2    1   -5.14347641E-04   5.03793228E-13
    4    9    0    1    2    4.79255690E-04  -7.25657844E-13
    4    9    0    2    2    2.97440496E-04  -1.14910409E-12
    4   10    0    1    1   -3.83192219E-04   8.60055898E-13
    4   10    0    2    1    4.77682599E-04   1.15323145E-13
    4   10    0    1    2   -2.98580504E-04  -1.45238035E-12
    4   10    0    2    2   -3.83192220E-04  -8.69450301E-13
    4   11    0    1    1    3.65702568E-04  -2.27069858E-12
    4   11    0    2    1    6.97232641E-04   1.49236722E-12
    4   11    0    1    2   -1.78460055E-03  -1.19486782E-12
    4   11    0    2    2    3.65702568E-04   2.26604780E-12
    5   -7    0    1    1    3.50391764E-04  -8.50672620E-13
    5   -7    0    2    1    1.02740915E-03   5.73652625E-13
    5   -7    0    1    2   -1.20106005E-03   2.81643159E-13
    5   -7    0    2    2    3.50391764E-04   8.48756472E-13
    5   -6    0    1    1   -3.55541661E-04   7.66463998E-13
    5   -6    0    2    1    1.02741305E-03   1.05160789E-12
    5   -6    0    1    2    4.23403112E-04   2.19548393E-13
    5   -6    0    2    2   -3.55541659E-04  -7.58962830E-13
    5   -5    0    1    1   -6.83465753E-04   7.85010133E-13
    5   -5    0    2    1    1.17260618E-03  -1.33815925E-12
    5   -5    0    1    2   -2.63703383E-04   4.57019051E-13
    5   -5    0    2    2   -6.83465752E-04  -7.84697405E-13
    5   -4    0    1    1    2.97440423E-04  -7.14562313E-13
    5   -4    0    2    1    4.77649897E-04  -4.33942012E-13
    5   -4    0    1    2   -1.04224007E-03  -4.98369966E-13
    5   -4    0    2    2    2.97440426E-04   7.10956129E-13
    5   -3    0    1    1    1.98816813E-04   3.79727922E-13
    5   -3    0    2    1   -4.09528868E-04   3.75648309E-13
    5   -3    0    1    2    7.27250451E-04  -3.05080419E-13
    5   -3    0    2    2    1.98816811E-04  -3.85164327E-13
    5   -2    0    1    1   -9.64584541E-04   4.28645019E-13
    5   -2    0    2    1    2.74013687E-04   4.18736476E-13
    5   -2    0    1    2    1.20640318E-03  -1.38422542E-12
    5   -2    0    2    2   -9.64584540E-04  -4.36991610E-13
    5   -1    0    1    1   -4.76254733E-04  -1.31673013E-12
    5   -1    0    2    1    1.29851978E-03   2.78518799E-15
    5   -1    0    1    2   -7.60927316E-04  -3.60582257E-13
    5   -1    0    2    2   -4.76254734E-04   1.31845413E-12
    5    0    0    1    1    9.48870406E-04  -5.01478564E-13
    5    0    0    2    1    2.29111923E-04  -7.67908047E-13
    5    0    0    1    2   -1.43762121E-03  -1.44472967E-12
    5    0    0    2    2    9.48870407E-04   5.06907949E-13
    5    1    0    1    1    6.16210791E-04   3.51853594E-13
    5    1    0    2    1   -7.60858026E-04   1.19215553E-12
    5    1    0    1    2   -6.39253889E-04   1.96920704E-12
    5    1    0    2    2    6.16210794E-04  -3.50693222E-13
    5    2    0    1    1    6.00473885E-05   1.80199328E-12
    5    2    0    2    1    1.34208491E-03  -1.42463615E-12
    5    2    0    1    2   -2.05077636E-03   1.45269812E-12
    5    2    0    2    2    6.00473892E-05  -1.79868109E-12
    5    3    0    1    1    6.00464816E-05  -9.29175873E-13
    5    3    0    2    1    2.64855620E-03  -1.87717340E-13
    5    3    0    1    2   -6.39308263E-04   1.68514475E-12
    5    3    0    2    2    6.00464788E-05   9.23829447E-13
    5    4    0    1    1    6.16205112E-04  -1.63243548E-12
    5    4    0    2    1    1.34215836E-03  -7.92937866E-13
    5    4    0    1    2   -1.43750040E-03   4.08955257E-13
    5    4    0    2    2    6.16205110E-04   1.64946773E-12
    5    5    0    1    1    9.48868317E-04   8.50027687E-14
    5    5    0    2    1   -7.60823788E-04  -6.04279767E-13
    5    5    0    1    2   -7.60823785E-04  -4.25627715E-13
    5    5    0    2    2    9.48868316E-04  -9.13988977E-14
    5    6    0    1    1   -4.76252719E-04  -2.01371585E-13
    5    6    0    2    1    2.29111470E-04  -5.67334170E-13
    5    6    0    1    2    1.20632609E-03  -1.18049943E-12
    5    6    0    2    2   -4.76252717E-04   1.92595788E-13
    5    7    0    1    1   -9.64583767E-04  -9.66653277E-14
    5    7    0    2    1    1.29863441E-03   2.00528937E-12
    5    7    0    1    2    7.27159349E-04  -8.38786421E-13
    5    7    0    2    2   -9.64583767E-04   9.32255388E-14
    5    8    0    1    1    1.98817162E-04   6.74607149E-13
    5    8    0    2    1    2.74030429E-04   1.12223697E-12
    5    8    0    1    2   -1.04216750E-03  -1.03259748E-13
    5    8    0    2    2    1.98817163E-04  -6.84384416E-13
    5    9    0    1    1    2.97440736E-04  -4.25351709E-13
    5    9    0    2    1   -4.09634211E-04   1.40317743E-13
    5    9    0    1    2   -2.63638693E-04  -1.24509452E-13
    5    9    0    2    2    2.97440737E-04   4.43622465E-13
    5   10    0    1    1   -6.83465393E-04   2.58769589E-13
    5   10    0    2    1    4.77592828E-04   8.01430919E-13
    5   10    0    1    2    4.23299655E-04  -8.73236604E-13
    5   10    0    2    2   -6.83465396E-04  -2.73151581E-13
    5   11    0    1    1   -3.55541459E-04  -2.68816580E-13
    5   11    0    2    1    1.17261349E-03   8.24631503E-13
    5   11    0    1    2   -1.20114885E-03  -1.16427941E-12
    5   11    0    2    2   -3.55541462E-04   2.80204739E-13
    5   12    0    1    1    3.50391764E-04  -8.50689133E-13
    5   12    0    2    1    1.02740969E-03   5.74140743E-13
    5   12    0    1    2   -1.20106058E-03   2.81146194E-13
    5   12    0    2    2    3.50391764E-04   8.48739649E-13
    6   -6    0    1    1    3.11834473E-04   6.88817711E-13
    6   -6    0    2    1    9.86801332E-04   1.04254276E-12
    6   -6    0    1    2   -7.42211657E-04  -5.16379915E-13
    6   -6    0    2    2    3.11834476E-04  -6.76481630E-13
    6   -5    0    1    1   -3.55541659E-04  -4.91401334E-13
    6   -5    0    2    1    1.02741305E-03   2.73015344E-13
    6   -5    0    1    2    4.23403111E-04   1.25390094E-12
    6   -5    0    2    2   -3.55541661E-04   4.93727923E-13
    6   -4    0    1    1   -3.83191918E-04  -1.19829234E-12
    6   -4    0    2    1    6.97085326E-04  -6.33818269E-13
    6   -4    0    1    2    4.79264782E-04  -2.80237119E-13
    6   -4    0    2    2   -3.83191916E-04   1.19594211E-12
    6   -3    0    1    1   -2.26493573E-04  -1.41307503E-13
    6   -3    0    2    1   -2.62936777E-04   9.29577838E-15
    6   -3    0    1    2    1.02916771E-03  -1.69642395E-14
    6   -3    0    2    2   -2.26493570E-04   1.51959558E-13
    6   -2    0    1    1   -5.90228439E-04   2.68701519E-12
    6   -2    0    2    1   -8.31980462E-04  -1.47687996E-12
    6   -2    0    1    2    1.22746826E-03  -1.24318122E-14
    6   -2    0    2    2   -5.90228438E-04  -2.69101391E-12
    6   -1    0    1    1   -6.63757870E-04  -6.35024555E-13
    6   -1    0    2    1   -3.10670156E-04   4.93895677E-13
    6   -1    0    1    2    3.69269631E-04   1.76225882E-12
    6   -1    0    2    2   -6.63757870E-04   6.41530333E-13
    6    0    0    1    1   -4.28434312E-04  -4.77308937E-13
    6    0    0    2    1    2.65212315E-04  -2.00728772E-12
    6    0    0    1    2    2.29167550E-04   3.13665296E-13
    6    0    0    2    2   -4.28434315E-04   4.63683968E-13
    6    1    0    1    1   -4.76254902E-04  -1.59755431E-13
    6    1    0    2    1    3.69139942E-04  -7.91555083E-13
    6    1    0    1    2   -3.52836269E-04  -5.05074818E-14
    6    1    0    2    2   -4.76254902E-04   1.50323115E-13
    6    2    0    1    1   -3.23857957E-04   1.55090275E-12
    6    2    0    2    1    1.20631307E-03  -1.07874442E-12
    6    2    0    1    2   -2.62864802E-03   4.32204254E-15
    6    2    0    2    2   -3.23857953E-04  -1.54626393E-12
    6    3    0    1    1    2.02378822E-04  -7.77691535E-13
    6    3    0    2    1    2.38371612E-03   1.04245865E-12
    6    3    0    1    2   -2.62868013E-03  -1.02828392E-12
    6    3    0    2    2    2.02378824E-04   7.77703083E-13
    6    4    0    1    1   -3.23858703E-04  -1.08326401E-12
    6    4    0    2    1    2.38374015E-03   1.07500738E-12
    6    4    0    1    2   -3.52856439E-04   6.72713064E-13
    6    4    0    2    2   -3.23858705E-04   1.08689925E-12
    6    5    0    1    1   -4.76252718E-04  -3.66924598E-13
    6    5    0    2    1    1.20632609E-03  -9.21745761E-14
    6    5    0    1    2    2.29111475E-04   1.56772006E-12
    6    5    0    2    2   -4.76252718E-04   3.66130413E-13
    6    6    0    1    1   -4.28428797E-04  -5.87692061E-13
    6    6    0    2    1    3.69108546E-04  -1.05035995E-12
    6    6    0    1    2    3.69108548E-04   7.88076601E-13
    6    6    0    2    2   -4.28428794E-04   5.96844231E-13
    6    7    0    1    1   -6.63751184E-04  -1.61691040E-12
    6    7    0    2    1    2.65191212E-04  -4.34642278E-13
    6    7    0    1    2    1.22741800E-03  -1.79383636E-12
    6    7    0    2    2   -6.63751181E-04   1.61845494E-12
    6    8    0    1    1   -5.90227927E-04  -8.78966079E-13
    6    8    0    2    1   -3.10700680E-04   3.21714032E-13
    6    8    0    1    2    1.02924310E-03  -5.58872069E-14
    6    8    0    2    2   -5.90227928E-04   8.79493564E-13
    6    9    0    1    1   -2.26494083E-04   3.07712279E-13
    6    9    0    2    1   -8.32075193E-04   6.17715835E-13
    6    9    0    1    2    4.79336612E-04  -1.25943191E-12
    6    9    0    2    2   -2.26494080E-04  -3.12965225E-13
    6   10    0    1    1   -3.83191981E-04  -3.55823620E-13
    6   10    0    2    1   -2.62905269E-04   1.98402493E-12
    6   10    0    1    2    4.23420961E-04  -8.36758831E-13
    6   10    0    2    2   -3.83191984E-04   3.46426314E-13
    6   11    0    1    1   -3.55541371E-04   1.03972452E-12
    6   11    0    2    1    6.97076079E-04   1.33689015E-12
    6   11    0    1    2   -7.42173071E-04  -5.72374559E-13
    6   11    0    2    2   -3.55541372E-04  -1.03734321E-12
    6   12    0    1    1    3.11834622E-04  -9.19979189E-13
    6   12    0    2    1    1.02725630E-03   5.40233552E-13
    6   12    0    1    2   -1.82769932E-03  -1.18298286E-12
    6   12    0    2    2    3.11834624E-04   9.09870333E-13
    7   -5    0    1    1    3.50391766E-04  -6.02149938E-13
    7   -5    0    2    1    1.02740914E-03   7.81913412E-14
    7   -5    0    1    2   -1.20106005E-03   1.03841454E-12
    7   -5    0    2    2    3.50391762E-04   5.84796627E-13
    7   -4    0    1    1    3.65702772E-04  -1.18548241E-12
    7   -4    0    2    1    6.84136294E-04  -3.09721370E-13
    7   -4    0    1    2   -2.98396322E-04  -1.76269306E-13
    7   -4    0    2    2    3.65702768E-04   1.19100468E-12
    7   -3    0    1    1    1.22025828E-04  -1.22768210E-13
    7   -3    0    2    1    3.97516015E-04   5.76903316E-13
    7   -3    0    1    2    9.04263310E-04   1.63076934E-12
    7   -3    0    2    2    1.22025830E-04   1.28282526E-13
    7   -2    0    1    1    6.00353629E-05   2.61198045E-12
    7   -2    0    2    1   -1.77814174E-04  -2.15363155E-12
    7   -2    0    1    2    1.03475164E-03   5.67501604E-13
    7   -2    0    2    2    6.00353641E-05  -2.61194964E-12
    7   -1    0    1    1    7.11290790E-04   8.07641953E-14
    7   -1    0    2    1   -1.27274561E-03  -1.29947763E-12
    7   -1    0    1    2   -1.32329969E-04  -3.68980553E-13
    7   -1    0    2    2    7.11290787E-04  -8.20235558E-14
    7    0    0    1    1    7.21331743E-04   5.39824083E-13
    7    0    0    2    1   -1.56528470E-03   1.03775026E-12
    7    0    0    1    2    2.65346262E-04   1.31557757E-12
    7    0    0    2    2    7.21331739E-04  -5.34036810E-13
    7    1    0    1    1   -6.63757875E-04  -3.76970623E-13
    7    1    0    2    1   -1.32368893E-04   4.94941202E-13
    7    1    0    1    2    1.29861520E-03   6.34342401E-13
    7    1    0    2    2   -6.63757879E-04   3.71691549E-13
    7    2    0    1    1   -9.64584786E-04  -2.66744617E-15
    7    2    0    2    1    1.22746542E-03  -1.29011220E-12
    7    2    0    1    2   -8.51216769E-04   1.38128413E-12
    7    2    0    2    2   -9.64584784E-04   9.72352810E-15
    7    3    0    1    1    5.57232897E-04  -6.97579602E-13
    7    3    0    2    1    7.27195784E-04  -1.24692849E-12
    7    3    0    1    2   -3.12030342E-03  -9.37703204E-13
    7    3    0    2    2    5.57232898E-04   6.90012357E-13
    7    4    0    1    1    5.57233028E-04   6.54611597E-13
    7    4    0    2    1   -7.41733803E-05  -1.85905521E-13
    7    4    0    1    2   -8.51196896E-04   3.39019771E-13
    7    4    0    2    2    5.57233026E-04  -6.55717321E-13
    7    5    0    1    1   -9.64583766E-04   1.67429970E-12
    7    5    0    2    1    7.27159348E-04  -8.29795185E-13
    7    5    0    1    2    1.29863441E-03  -4.92500811E-13
    7    5    0    2    2   -9.64583768E-04  -1.67857293E-12
    7    6    0    1    1   -6.63751182E-04  -9.23679759E-13
    7    6    0    2    1    1.22741800E-03   1.18029446E-12
    7    6    0    1    2    2.65191212E-04  -3.73190847E-13
    7    6    0    2    2   -6.63751183E-04   9.22982947E-13
    7    7    0    1    1    7.21334940E-04   9.67243779E-13
    7    7    0    2    1   -1.32376193E-04   1.26675007E-12
    7    7    0    1    2   -1.32376192E-04  -7.86746770E-13
    7    7    0    2    2    7.21334939E-04  -9.65838572E-13
    7    8    0    1    1    7.11289285E-04   7.07524196E-13
    7    8    0    2    1   -1.56527368E-03  -5.28518938E-14
    7    8    0    1    2    1.03486261E-03  -4.24154796E-14
    7    8    0    2    2    7.11289286E-04  -6.97344118E-13
    7    9    0    1    1    6.00340431E-05   1.57087648E-12
    7    9    0    2    1   -1.27287680E-03  -9.37334663E-13
    7    9    0    1    2    9.04247102E-04  -1.53701194E-12
    7    9    0    2    2    6.00340420E-05  -1.57772489E-12
    7   10    0    1    1    1.22025116E-04  -3.93753320E-13
    7   10    0    2    1   -1.77750257E-04   1.24066144E-12
    7   10    0    1    2   -2.98510661E-04  -1.98138438E-12
    7   10    0    2    2    1.22025115E-04   3.92006506E-13
    7   11    0    1    1    3.65702624E-04   1.35552070E-12
    7   11    0    2    1    3.97704537E-04   1.38682177E-12
    7   11    0    1    2   -1.20096933E-03  -1.22490112E-12
    7   11    0    2    2    3.65702622E-04  -1.34643192E-12
    7   12    0    1    1    3.50391635E-04   4.01374364E-13
    7   12    0    2    1    6.84049294E-04   1.00323610E-12
    7   12    0    1    2   -1.82756838E-03  -1.80363600E-13
    7   12    0    2    2    3.50391637E-04  -4.08979507E-13
    8   -3    0    1    1    4.86680811E-04  -6.11831802E-14
    8   -3    0    2    1    3.97631072E-04   7.81986693E-13
    8   -3    0    1    2   -1.03423443E-03   2.27332605E-13
    8   -3    0    2    2    4.86680816E-04   6.55263298E-14
    8   -2    0    1    1   -1.74734789E-04  -7.44371394E-13
    8   -2    0    2    1    1.12357442E-03  -7.29005285E-13
    8   -2    0    1    2    1.66180324E-04   2.87595492E-12
    8   -2    0    2    2   -1.74734789E-04   7.51574947E-13
    8   -1    0    1    1    1.11498108E-04  -1.08032222E-12
    8   -1    0    2    1    1.15070396E-03  -1.88562619E-12
    8   -1    0    1    2   -5.65208096E-04  -2.76043154E-13
    8   -1    0    2    2    1.11498108E-04   1.08407419E-12
    8    0    0    1    1    1.22204867E-03   9.94414538E-14
    8    0    0    2    1   -2.88279799E-04  -5.29938798E-13
    8    0    0    1    2   -1.56525429E-03  -5.00148465E-13
    8    0    0    2    2    1.22204867E-03  -1.06657114E-13
    8    1    0    1    1    7.11291285E-04   8.31587964E-13
    8    1    0    2    1   -5.65217832E-04  -7.57209036E-13
    8    1    0    1    2   -3.10709186E-04  -2.40390456E-13
    8    1    0    2    2    7.11291285E-04  -8.37509190E-13
    8    2    0    1    1   -5.90228549E-04  -8.19365840E-13
    8    2    0    2    1    1.03485186E-03   3.02158430E-13
    8    2    0    1    2    2.73967711E-04   1.65795352E-12
    8    2    0    2    2   -5.90228547E-04   8.24746225E-13
    8    3    0    1    1    1.98816643E-04   6.57742364E-13
    8    3    0    2    1    1.02928097E-03  -2.15596155E-13
    8    3    0    1    2   -1.44534814E-03  -3.38368189E-13
    8    3    0    2    2    1.98816643E-04  -6.56412671E-13
    8    4    0    1    1    1.34955445E-03   1.65237206E-13
    8    4    0    2    1   -1.04217192E-03   7.06282777E-13
    8    4    0    1    2   -1.44532923E-03   4.92233964E-13
    8    4    0    2    2    1.34955445E-03  -1.69052195E-13
    8    5    0    1    1    1.98817162E-04   1.24776824E-12
    8    5    0    2    1   -1.04216750E-03   1.37792671E-12
    8    5    0    1    2    2.74030428E-04  -1.55096543E-13
    8    5    0    2    2    1.98817163E-04  -1.25250307E-12
    8    6    0    1    1   -5.90227929E-04  -2.51989047E-12
    8    6    0    2    1    1.02924310E-03   1.66783199E-14
    8    6    0    1    2   -3.10700679E-04  -5.68930248E-13
    8    6    0    2    2   -5.90227926E-04   2.52313354E-12
    8    7    0    1    1    7.11289286E-04  -4.95815479E-13
    8    7    0    2    1    1.03486260E-03  -5.09586119E-13
    8    7    0    1    2   -1.56527367E-03   5.00882928E-13
    8    7    0    2    2    7.11289285E-04   4.99300389E-13
    8    8    0    1    1    1.22204287E-03   1.26256724E-12
    8    8    0    2    1   -5.65046529E-04  -1.99907869E-12
    8    8    0    1    2   -5.65046524E-04   1.66575875E-12
    8    8    0    2    2    1.22204286E-03  -1.25792407E-12
    8    9    0    1    1    1.11490509E-04  -8.07199415E-14
    8    9    0    2    1   -2.88202280E-04  -8.47750317E-13
    8    9    0    1    2    1.66244579E-04   3.92149876E-13
    8    9    0    2    2    1.11490510E-04   7.68101910E-14
    8   10    0    1    1   -1.74735568E-04  -1.13529357E-12
    8   10    0    2    1    1.15060312E-03   2.50905529E-14
    8   10    0    1    2   -1.03442957E-03  -1.26455060E-12
    8   10    0    2    2   -1.74735567E-04   1.13508046E-12
    8   11    0    1    1    4.86681129E-04  -1.63790584E-12
    8   11    0    2    1    1.12368720E-03   1.14610566E-12
    8   11    0    1    2   -1.78469280E-03  -6.55381067E-13
    8   11    0    2    2    4.86681127E-04   1.63185163E-12
    9   -1    0    1    1   -1.06323175E-03  -3.70141605E-13
    9   -1    0    2    1    1.15073907E-03  -2.09726535E-12
    9   -1    0    1    2    4.91365199E-04   9.17484262E-13
    9   -1    0    2    2   -1.06323175E-03   3.62245497E-13
    9    0    0    1    1   -8.50654555E-04  -1.46758095E-13
    9    0    0    2    1    1.61385363E-03  -3.20573682E-13
    9    0    0    1    2   -2.88244746E-04   1.11367597E-12
    9    0    0    2    2   -8.50654551E-04   1.61739816E-13
    9    1    0    1    1    1.11498724E-04   1.21906007E-12
    9    1    0    2    1    4.91339435E-04  -1.46040547E-12
    9    1    0    1    2   -1.27279173E-03   6.27854432E-13
    9    1    0    2    2    1.11498724E-04  -1.21150660E-12
    9    2    0    1    1    6.00355861E-05  -1.33489905E-13
    9    2    0    2    1    1.66154568E-04  -1.43706018E-12
    9    2    0    1    2   -8.32086431E-04  -2.78302008E-13
    9    2    0    2    2    6.00355879E-05   1.34563416E-13
    9    3    0    1    1   -2.26494038E-04   1.54638728E-13
    9    3    0    2    1    9.04240536E-04   4.46050442E-13
    9    3    0    1    2   -4.09611689E-04  -3.78211893E-13
    9    3    0    2    2   -2.26494041E-04  -1.64073722E-13
    9    4    0    1    1    2.97440497E-04   1.64146577E-14
    9    4    0    2    1    4.79255689E-04   2.57385130E-13
    9    4    0    1    2   -5.14347639E-04  -1.62414863E-12
    9    4    0    2    2    2.97440496E-04  -1.06844773E-14
    9    5    0    1    1    2.97440736E-04   1.01400969E-12
    9    5    0    2    1   -2.63638695E-04   4.02138105E-13
    9    5    0    1    2   -4.09634211E-04  -9.52884312E-13
    9    5    0    2    2    2.97440738E-04  -1.02377069E-12
    9    6    0    1    1   -2.26494082E-04  -2.78566053E-13
    9    6    0    2    1    4.79336612E-04   7.93495858E-13
    9    6    0    1    2   -8.32075192E-04   1.78282833E-14
    9    6    0    2    2   -2.26494080E-04   2.82841959E-13
    9    7    0    1    1    6.00340436E-05  -2.65266593E-12
    9    7    0    2    1    9.04247100E-04   3.63159259E-13
    9    7    0    1    2   -1.27287680E-03   1.13976694E-12
    9    7    0    2    2    6.00340415E-05   2.64368503E-12
    9    8    0    1    1    1.11490510E-04   4.53575043E-13
    9    8    0    2    1    1.66244577E-04   4.19290715E-13
    9    8    0    1    2   -2.88202279E-04   6.28940067E-13
    9    8    0    2    2    1.11490510E-04  -4.57729596E-13
    9    9    0    1    1   -8.50658478E-04   7.59143949E-13
    9    9    0    2    1    4.91536662E-04   9.57117558E-13
    9    9    0    1    2    4.91536660E-04  -5.86169895E-13
    9    9    0    2    2   -8.50658478E-04  -7.53075533E-13
    9   10    0    1    1   -1.06323054E-03  -4.01429614E-13
    9   10    0    2    1    1.61377383E-03   2.32635134E-12
    9   10    0    1    2   -4.17237490E-04  -1.36295030E-12
    9   10    0    2    2   -1.06323054E-03   4.05971470E-13
   10    1    0    1    1   -1.06323175E-03   3.69646563E-13
   10    1    0    2    1    4.91495606E-04  -9.14572486E-13
   10    1    0    1    2    1.15072909E-03   2.09762926E-12
   10    1    0    2    2   -1.06323175E-03  -3.62738076E-13
   10    2    0    1    1   -1.74734607E-04   1.29777295E-12
   10    2    0    2    1   -4.17278502E-04  -1.70826352E-12
   10    2    0    1    2   -1.77757669E-04   2.77284995E-13
   10    2    0    2    2   -1.74734608E-04  -1.29398860E-12
   10    3    0    1    1    1.22025438E-04  -2.65599828E-13
   10    3    0    2    1   -1.03433552E-03  -1.14504003E-14
   10    3    0    1    2   -2.62847240E-04  -2.50310894E-13
   10    3    0    2    2    1.22025440E-04   2.71167627E-13
   10    4    0    1    1   -3.83192219E-04   1.63827966E-13
   10    4    0    2    1   -2.98580504E-04   4.11331950E-13
   10    4    0    1    2    4.77682599E-04   6.16074655E-13
   10    4    0    2    2   -3.83192220E-04  -1.65667931E-13
   10    5    0    1    1   -6.83465394E-04  -1.41923133E-12
   10    5    0    2    1    4.23299656E-04  -3.82336107E-13
   10    5    0    1    2    4.77592828E-04   5.37902707E-14
   10    5    0    2    2   -6.83465394E-04   1.41675856E-12
   10    6    0    1    1   -3.83191984E-04   1.34343946E-12
   10    6    0    2    1    4.23420960E-04  -2.07656415E-12
   10    6    0    1    2   -2.62905268E-04  -2.06654328E-13
   10    6    0    2    2   -3.83191981E-04  -1.32937200E-12
   10    7    0    1    1    1.22025118E-04   5.23406226E-13
   10    7    0    2    1   -2.98510661E-04   1.95477480E-13
   10    7    0    1    2   -1.77750254E-04  -1.14833974E-12
   10    7    0    2    2    1.22025114E-04  -5.25545463E-13
   10    8    0    1    1   -1.74735566E-04  -2.31213124E-13
   10    8    0    2    1   -1.03442957E-03   1.02857609E-12
   10    8    0    1    2    1.15060312E-03  -8.29105911E-13
   10    8    0    2    2   -1.74735568E-04   2.21624012E-13
   10    9    0    1    1   -1.06323054E-03   4.00983369E-13
   10    9    0    2    1   -4.17237490E-04   1.36105850E-12
   10    9    0    1    2    1.61377383E-03  -2.32295176E-12
   10    9    0    2    2   -1.06323054E-03  -4.06416883E-13
   11    3    0    1    1    4.86680811E-04   6.11449452E-14
   11    3    0    2    1   -1.03423343E-03  -2.27191362E-13
   11    3    0    1    2    3.97630710E-04  -7.81864751E-13
   11    3    0    2    2    4.86680816E-04  -6.55694852E-14
   11    4    0    1    1    3.65702567E-04   7.62898184E-13
   11    4    0    2    1   -1.78460055E-03   6.63352661E-13
   11    4    0    1    2    6.97232639E-04  -8.33305752E-13
   11    4    0    2    2    3.65702568E-04  -7.55849489E-13
   11    5    0    1    1   -3.55541458E-04   4.32706594E-13
   11    5    0    2    1   -1.20114885E-03   4.41669277E-13
   11    5    0    1    2    1.17261349E-03   1.49075147E-12
   11    5    0    2    2   -3.55541463E-04  -4.32468025E-13
   11    6    0    1    1   -3.55541371E-04  -1.22110874E-12
   11    6    0    2    1   -7.42173071E-04  -7.33008168E-13
   11    6    0    1    2    6.97076080E-04   1.21806986E-12
   11    6    0    2    2   -3.55541371E-04   1.21909498E-12
   11    7    0    1    1    3.65702623E-04  -3.33051637E-13
   11    7    0    2    1   -1.20096933E-03  -6.04623852E-13
   11    7    0    1    2    3.97704537E-04  -4.01759482E-13
   11    7    0    2    2    3.65702623E-04   3.30303467E-13
   11    8    0    1    1    4.86681129E-04   1.63761715E-12
   11    8    0    2    1   -1.78469280E-03   6.57035360E-13
   11    8    0    1    2    1.12368720E-03  -1.14695822E-12
   11    8    0    2    2    4.86681127E-04  -1.63213941E-12
   12    5    0    1    1    3.50391766E-04   6.02199461E-13
   12    5    0    2    1   -1.20106058E-03  -1.03882474E-12
   12    5    0    1    2    1.02740968E-03  -7.84267996E-14
   12    5    0    2    2    3.50391762E-04  -5.84745876E-13
   12    6    0    1    1    3.11834623E-04   9.85023897E-13
   12    6    0    2    1   -1.82769932E-03   6.94869830E-13
   12    6    0    1    2    1.02725630E-03   7.94668434E-13
   12    6    0    2    2    3.11834624E-04  -9.92019209E-13
   12    7    0    1    1    3.50391635E-04  -4.01514492E-13
   12    7    0    2    1   -1.82756838E-03   1.80106891E-13
   12    7    0    1    2    6.84049294E-04  -1.00085635E-12
   12    7    0    2    2    3.50391637E-04   4.08839061E-13

