# written on 12Aug2025 at 17:10:13  (created by pw2cw)
           2
         379
    2    1    2    2    1    1    1    1    2    2    1    1    1    1    1
    1    1    2    2    1    1    1    1    1    1    1    1    1    1    2
    2    1    1    1    1    1    1    1    1    1    1    1    1    1    2
    2    1    1    1    1    1    1    1    1    1    1    1    1    1    1
    1    1    2    1    1    1    1    1    1    1    1    1    1    1    1
    1    1    1    1    1    1    1    2    1    1    1    1    1    1    1
    1    1    1    1    1    1    1    1    1    1    1    2    1    1    1
    1    1    1    1    1    1    1    1    1    1    1    1    1    1    1
    1    2    1    1    1    1    1    1    1    1    1    1    1    1    1
    1    1    1    1    1    2    1    1    1    1    1    1    1    1    1
    1    1    1    1    1    1    1    1    1    1    2    1    1    1    1
    1    1    1    1    1    1    1    1    1    1    1    1    1    1    2
    1    1    1    1    1    1    1    1    1    1    1    1    1    1    1
    1    1    1    1    2    1    1    1    1    1    1    1    1    1    1
    1    1    1    1    1    1    1    1    2    1    1    1    1    1    1
    1    1    1    1    1    1    1    1    1    1    1    1    1    2    1
    1    1    1    1    1    1    1    1    1    1    1    1    1    1    1
    1    1    2    1    1    1    1    1    1    1    1    1    1    1    1
    1    1    1    1    1    1    1    2    1    1    1    1    1    1    1
    1    1    1    1    1    1    1    1    1    1    1    2    1    1    1
    1    1    1    1    1    1    1    1    1    1    1    1    1    1    1
    1    2    1    1    1    1    1    1    1    1    1    1    1    1    1
    1    1    1    2    2    1    1    1    1    1    1    1    1    1    1
    1    1    1    2    2    1    1    1    1    1    1    1    1    1    1
    2    2    1    1    1    1    1    1    1    2    2    1    1    1    1
    2    2    1    2
  -12   -7    0    1    1    3.50391635E-04   6.33403654E-13
  -12   -7    0    2    1   -2.01204357E-04   9.93768203E-13
  -12   -7    0    1    2   -5.13468772E-04  -3.46156689E-13
  -12   -7    0    2    2    3.50391637E-04  -6.40646487E-13
  -12   -6    0    1    1    3.11834623E-04  -1.03507512E-12
  -12   -6    0    2    1   -1.65462615E-04  -6.24465749E-13
  -12   -6    0    1    2   -5.13906832E-04  -6.55150426E-13
  -12   -6    0    2    2    3.11834624E-04   1.04207683E-12
  -12   -5    0    1    1    3.50391766E-04  -7.24206512E-13
  -12   -5    0    2    1   -1.65091142E-04  -1.34742010E-13
  -12   -5    0    1    2   -2.10476319E-04   1.28238887E-12
  -12   -5    0    2    2    3.50391762E-04   7.06629656E-13
  -11   -8    0    1    1    4.86681129E-04  -1.57131284E-12
  -11   -8    0    2    1    1.02471812E-03   1.23711793E-12
  -11   -8    0    1    2   -1.18834382E-03  -5.71251780E-13
  -11   -8    0    2    2    4.86681127E-04   1.56583517E-12
  -11   -7    0    1    1    3.65702623E-04   4.80430665E-13
  -11   -7    0    2    1   -6.04990845E-05   4.40122069E-13
  -11   -7    0    1    2   -2.09721068E-04   4.49289409E-13
  -11   -7    0    2    2    3.65702623E-04  -4.77617664E-13
  -11   -6    0    1    1   -3.55541371E-04   1.24157929E-12
  -11   -6    0    2    1   -4.81265586E-05  -1.11136322E-12
  -11   -6    0    1    2    3.99865299E-04   7.58756170E-13
  -11   -6    0    2    2   -3.55541371E-04  -1.23944153E-12
  -11   -5    0    1    1   -3.55541458E-04  -5.75250587E-13
  -11   -5    0    2    1    3.50704566E-04  -1.56832823E-12
  -11   -5    0    1    2   -2.10203502E-04  -5.06403157E-14
  -11   -5    0    2    2   -3.55541463E-04   5.74989447E-13
  -11   -4    0    1    1    3.65702567E-04  -7.55910054E-13
  -11   -4    0    2    1   -4.78525410E-05   5.13864175E-13
  -11   -4    0    1    2   -1.18859554E-03  -4.55874488E-13
  -11   -4    0    2    2    3.65702569E-04   7.48678830E-13
  -11   -3    0    1    1    4.86680811E-04   2.19864965E-14
  -11   -3    0    2    1   -6.04736507E-05   7.76750556E-13
  -11   -3    0    1    2   -8.16817640E-04   1.55937109E-13
  -11   -3    0    2    2    4.86680816E-04  -1.78085876E-14
  -10   -9    0    1    1   -1.06323054E-03  -4.21504936E-13
  -10   -9    0    2    1    1.64473993E-03   2.35200789E-12
  -10   -9    0    1    2   -4.67707667E-04  -1.47759066E-12
  -10   -9    0    2    2   -1.06323054E-03   4.26824637E-13
  -10   -8    0    1    1   -1.74735566E-04   8.64770971E-14
  -10   -8    0    2    1    1.17714808E-03   9.87821525E-13
  -10   -8    0    1    2   -8.16855485E-04  -1.14341470E-12
  -10   -8    0    2    2   -1.74735568E-04  -7.70236707E-14
  -10   -7    0    1    1    1.22025118E-04  -5.69798478E-13
  -10   -7    0    2    1   -3.61166305E-04   1.33436572E-12
  -10   -7    0    1    2    2.27761938E-04  -2.48896272E-13
  -10   -7    0    2    2    1.22025114E-04   5.71949762E-13
  -10   -6    0    1    1   -3.83191984E-04  -1.27068629E-12
  -10   -6    0    2    1   -5.21896623E-04   2.66988310E-13
  -10   -6    0    1    2    1.04364337E-03   2.01678769E-12
  -10   -6    0    2    2   -3.83191981E-04   1.25666208E-12
  -10   -5    0    1    1   -6.83465395E-04   1.43336856E-12
  -10   -5    0    2    1    3.63158631E-04  -2.84888517E-14
  -10   -5    0    1    2    1.04349375E-03   5.77451760E-13
  -10   -5    0    2    2   -6.83465394E-04  -1.43093254E-12
  -10   -4    0    1    1   -3.83192219E-04  -2.18449676E-13
  -10   -4    0    2    1    3.63195404E-04  -6.86019940E-13
  -10   -4    0    1    2    2.27667682E-04  -3.37135084E-13
  -10   -4    0    2    2   -3.83192220E-04   2.20183249E-13
  -10   -3    0    1    1    1.22025438E-04   1.41191567E-13
  -10   -3    0    2    1   -5.21999663E-04   4.00238492E-13
  -10   -3    0    1    2   -8.16722609E-04  -2.64964266E-13
  -10   -3    0    2    2    1.22025440E-04  -1.47040044E-13
  -10   -2    0    1    1   -1.74734607E-04  -1.17313357E-12
  -10   -2    0    2    1   -3.61379503E-04   6.53109335E-14
  -10   -2    0    1    2   -4.67677340E-04   1.38482427E-12
  -10   -2    0    2    2   -1.74734608E-04   1.16926195E-12
  -10   -1    0    1    1   -1.06323175E-03  -1.03314188E-13
  -10   -1    0    2    1    1.17713596E-03  -1.85252875E-12
  -10   -1    0    1    2    4.42470621E-04   7.33047798E-13
  -10   -1    0    2    2   -1.06323175E-03   9.63889046E-14
   -9  -10    0    1    1   -1.06323054E-03   4.21952182E-13
   -9  -10    0    2    1   -4.67707667E-04   1.47948616E-12
   -9  -10    0    1    2    1.64473993E-03  -2.35539566E-12
   -9  -10    0    2    2   -1.06323054E-03  -4.26377610E-13
   -9   -9    0    1    1   -8.50658478E-04  -7.25457910E-13
   -9   -9    0    2    1    4.42459310E-04   6.28380290E-13
   -9   -9    0    1    2    4.42459311E-04  -1.02167067E-12
   -9   -9    0    2    2   -8.50658478E-04   7.19372827E-13
   -9   -8    0    1    1    1.11490509E-04  -4.26136541E-13
   -9   -8    0    2    1   -2.97240410E-04  -5.51584425E-13
   -9   -8    0    1    2    2.29201218E-04  -6.28475229E-13
   -9   -8    0    2    2    1.11490510E-04   4.30226564E-13
   -9   -7    0    1    1    6.00340434E-05   2.66596034E-12
   -9   -7    0    2    1   -1.31588893E-03  -9.27461669E-13
   -9   -7    0    1    2    1.06137662E-03  -4.81193114E-13
   -9   -7    0    2    2    6.00340417E-05  -2.65705430E-12
   -9   -6    0    1    1   -2.26494082E-04   4.84949623E-13
   -9   -6    0    2    1   -7.06647293E-04   1.58866957E-13
   -9   -6    0    1    2    4.40336607E-04  -8.41534420E-13
   -9   -6    0    2    2   -2.26494080E-04  -4.89374228E-13
   -9   -5    0    1    1    2.97440736E-04  -8.65631583E-13
   -9   -5    0    2    1    1.38579985E-04   1.00766693E-12
   -9   -5    0    1    2   -4.77413479E-04  -3.89546966E-13
   -9   -5    0    2    2    2.97440738E-04   8.75225905E-13
   -9   -4    0    1    1    2.97440497E-04  -7.15640691E-14
   -9   -4    0    2    1    2.80139296E-04   1.59474406E-12
   -9   -4    0    1    2    4.40412378E-04  -3.08725210E-13
   -9   -4    0    2    2    2.97440496E-04   6.57445012E-14
   -9   -3    0    1    1   -2.26494038E-04  -2.88670247E-13
   -9   -3    0    2    1    1.38375476E-04   4.61216687E-13
   -9   -3    0    1    2    1.06163395E-03  -7.60773288E-13
   -9   -3    0    2    2   -2.26494041E-04   2.97936778E-13
   -9   -2    0    1    1    6.00355862E-05   2.46072690E-13
   -9   -2    0    2    1   -7.06997538E-04   5.32885600E-13
   -9   -2    0    1    2    2.29337414E-04   1.20536351E-12
   -9   -2    0    2    2    6.00355878E-05  -2.47113177E-13
   -9   -1    0    1    1    1.11498724E-04  -8.56505216E-13
   -9   -1    0    2    1   -1.31604712E-03  -6.56213368E-13
   -9   -1    0    1    2    4.42351962E-04   1.33734565E-12
   -9   -1    0    2    2    1.11498724E-04   8.48977385E-13
   -9    0    0    1    1   -8.50654554E-04   1.73734680E-13
   -9    0    0    2    1   -2.97336566E-04  -1.23072171E-12
   -9    0    0    1    2    1.64478865E-03   1.59012199E-13
   -9    0    0    2    2   -8.50654552E-04  -1.88733275E-13
   -9    1    0    1    1   -1.06323175E-03   1.03799082E-13
   -9    1    0    2    1    4.42340365E-04  -7.35947584E-13
   -9    1    0    1    2    1.17714620E-03   1.85219222E-12
   -9    1    0    2    2   -1.06323175E-03  -9.59024763E-14
   -8  -11    0    1    1    4.86681129E-04   1.57160245E-12
   -8  -11    0    2    1   -1.18834382E-03   5.69609551E-13
   -8  -11    0    1    2    1.02471812E-03  -1.23627007E-12
   -8  -11    0    2    2    4.86681127E-04  -1.56554800E-12
   -8  -10    0    1    1   -1.74735568E-04   1.23987181E-12
   -8  -10    0    2    1   -8.16855483E-04   1.08853228E-12
   -8  -10    0    1    2    1.17714808E-03  -6.72988907E-14
   -8  -10    0    2    2   -1.74735566E-04  -1.23954374E-12
   -8   -9    0    1    1    1.11490509E-04   9.20226896E-14
   -8   -9    0    2    1    2.29201220E-04  -4.62204316E-13
   -8   -9    0    1    2   -2.97240410E-04   7.88943041E-13
   -8   -9    0    2    2    1.11490510E-04  -8.81485608E-14
   -8   -8    0    1    1    1.22204287E-03  -1.31064879E-12
   -8   -8    0    2    1   -5.69103335E-04  -1.56502550E-12
   -8   -8    0    1    2   -5.69103340E-04   1.83353205E-12
   -8   -8    0    2    2    1.22204286E-03   1.30587417E-12
   -8   -7    0    1    1    7.11289286E-04   4.58932269E-13
   -8   -7    0    2    1   -1.53627749E-03  -2.64733360E-13
   -8   -7    0    1    2    9.05422132E-04   2.75278081E-13
   -8   -7    0    2    2    7.11289285E-04  -4.62480997E-13
   -8   -6    0    1    1   -5.90227929E-04   2.76583843E-12
   -8   -6    0    2    1    9.11253324E-05   7.79050599E-13
   -8   -6    0    1    2    4.88823801E-04  -1.15375201E-13
   -8   -6    0    2    2   -5.90227926E-04  -2.76921680E-12
   -8   -5    0    1    1    1.98817162E-04  -9.21127640E-13
   -8   -5    0    2    1    1.20625174E-03   1.45264546E-13
   -8   -5    0    1    2   -1.99818077E-03  -1.36840632E-12
   -8   -5    0    2    2    1.98817163E-04   9.25579327E-13
   -8   -4    0    1    1    1.34955445E-03  -1.08056336E-13
   -8   -4    0    2    1   -2.08414451E-04  -5.45195825E-13
   -8   -4    0    1    2   -1.99806070E-03  -6.69602805E-13
   -8   -4    0    2    2    1.34955445E-03   1.11748379E-13
   -8   -3    0    1    1    1.98816643E-04  -6.12932697E-13
   -8   -3    0    2    1   -2.08554926E-04   2.69211838E-13
   -8   -3    0    1    2    4.89175331E-04   4.36806700E-14
   -8   -3    0    2    2    1.98816642E-04   6.11441971E-13
   -8   -2    0    1    1   -5.90228549E-04   9.57541542E-13
   -8   -2    0    2    1    1.20590560E-03  -1.55110679E-12
   -8   -2    0    1    2    9.05720765E-04  -3.51026635E-13
   -8   -2    0    2    2   -5.90228547E-04  -9.63025148E-13
   -8   -1    0    1    1    7.11291285E-04  -5.76563266E-13
   -8   -1    0    2    1    9.09017910E-05   1.63617716E-13
   -8   -1    0    1    2   -5.69155398E-04   1.01797281E-12
   -8   -1    0    2    2    7.11291286E-04   5.82595248E-13
   -8    0    0    1    1    1.22204867E-03  -9.63958952E-14
   -8    0    0    2    1   -1.53622853E-03   5.95721870E-14
   -8    0    0    1    2   -2.97362888E-04   5.79651656E-13
   -8    0    0    2    2    1.22204867E-03   1.03646497E-13
   -8    1    0    1    1    1.11498108E-04   8.63436541E-13
   -8    1    0    2    1   -5.69093483E-04   1.10325214E-13
   -8    1    0    1    2    1.17718436E-03   1.63411130E-12
   -8    1    0    2    2    1.11498108E-04  -8.67189808E-13
   -8    2    0    1    1   -1.74734789E-04   5.80696155E-13
   -8    2    0    2    1    2.29208979E-04  -2.70554643E-12
   -8    2    0    1    2    1.02461102E-03   4.77235349E-13
   -8    2    0    2    2   -1.74734789E-04  -5.87877979E-13
   -8    3    0    1    1    4.86680811E-04  -2.19513369E-14
   -8    3    0    2    1   -8.16818401E-04  -1.56051031E-13
   -8    3    0    1    2   -6.04730911E-05  -7.76889978E-13
   -8    3    0    2    2    4.86680816E-04   1.78517430E-14
   -7  -12    0    1    1    3.50391635E-04  -6.33264449E-13
   -7  -12    0    2    1   -5.13468772E-04   3.46386117E-13
   -7  -12    0    1    2   -2.01204357E-04  -9.96166837E-13
   -7  -12    0    2    2    3.50391637E-04   6.40785703E-13
   -7  -11    0    1    1    3.65702624E-04  -1.64996369E-12
   -7  -11    0    2    1   -2.09721067E-04   1.15604878E-12
   -7  -11    0    1    2   -6.04990849E-05  -1.11691437E-12
   -7  -11    0    2    2    3.65702622E-04   1.64077582E-12
   -7  -10    0    1    1    1.22025116E-04   3.13077012E-13
   -7  -10    0    2    1    2.27761938E-04   1.63927792E-12
   -7  -10    0    1    2   -3.61166308E-04  -1.00253294E-12
   -7  -10    0    2    2    1.22025115E-04  -3.11290472E-13
   -7   -9    0    1    1    6.00340429E-05  -1.52495935E-12
   -7   -9    0    2    1    1.06137662E-03   1.31172905E-12
   -7   -9    0    1    2   -1.31588894E-03   9.31810749E-13
   -7   -9    0    2    2    6.00340422E-05   1.53176181E-12
   -7   -8    0    1    1    7.11289285E-04  -7.62988418E-13
   -7   -8    0    2    1    9.05422135E-04   1.38214076E-13
   -7   -8    0    1    2   -1.53627750E-03  -1.50373261E-13
   -7   -8    0    2    2    7.11289286E-04   7.52682399E-13
   -7   -7    0    1    1    7.21334940E-04  -1.08479822E-12
   -7   -7    0    2    1   -3.69450953E-04   1.05046445E-12
   -7   -7    0    1    2   -3.69450955E-04  -1.50493926E-12
   -7   -7    0    2    2    7.21334939E-04   1.08316545E-12
   -7   -6    0    1    1   -6.63751182E-04   9.69953680E-13
   -7   -6    0    2    1    4.83701079E-04   4.97424636E-13
   -7   -6    0    1    2    4.15264026E-04  -1.18017996E-12
   -7   -6    0    2    2   -6.63751183E-04  -9.69428062E-13
   -7   -5    0    1    1   -9.64583766E-04  -1.34204801E-12
   -7   -5    0    2    1    2.25761424E-03   2.84617245E-13
   -7   -5    0    1    2   -4.72580754E-04   9.49643855E-13
   -7   -5    0    2    2   -9.64583768E-04   1.34615585E-12
   -7   -4    0    1    1    5.57233028E-04  -4.47060149E-13
   -7   -4    0    2    1    3.67358820E-04  -5.20877419E-13
   -7   -4    0    1    2   -1.36094765E-03   2.77627537E-13
   -7   -4    0    2    2    5.57233026E-04   4.47889512E-13
   -7   -3    0    1    1    5.57232897E-04   9.69009592E-13
   -7   -3    0    2    1   -1.95397134E-03   8.92052130E-13
   -7   -3    0    1    2   -4.72337044E-04   1.24172425E-12
   -7   -3    0    2    2    5.57232898E-04  -9.61517121E-13
   -7   -2    0    1    1   -9.64584786E-04   3.28590495E-13
   -7   -2    0    2    1    3.67175891E-04  -1.36043003E-12
   -7   -2    0    1    2    4.15544069E-04   1.21602431E-12
   -7   -2    0    2    2   -9.64584785E-04  -3.35687285E-13
   -7   -1    0    1    1   -6.63757875E-04   4.44672372E-13
   -7   -1    0    2    1    2.25748253E-03  -6.42645759E-13
   -7   -1    0    1    2   -3.69428512E-04  -1.63755181E-13
   -7   -1    0    2    2   -6.63757879E-04  -4.39429706E-13
   -7    0    0    1    1    7.21331743E-04  -6.95897223E-13
   -7    0    0    2    1    4.84052763E-04  -1.67224230E-12
   -7    0    0    1    2   -1.53650911E-03  -6.43753079E-13
   -7    0    0    2    2    7.21331739E-04   6.90071130E-13
   -7    1    0    1    1    7.11290790E-04  -4.47147706E-13
   -7    1    0    2    1   -3.68938643E-04   4.46663532E-14
   -7    1    0    1    2   -1.31596389E-03   1.27529781E-12
   -7    1    0    2    2    7.11290787E-04   4.48353755E-13
   -7    2    0    1    1    6.00353627E-05  -2.82507318E-12
   -7    2    0    2    1    9.05680849E-04  -5.20437834E-13
   -7    2    0    1    2   -3.61179707E-04   2.06766494E-12
   -7    2    0    2    2    6.00353642E-05   2.82502637E-12
   -7    3    0    1    1    1.22025828E-04   6.04909740E-14
   -7    3    0    2    1    1.06133321E-03  -1.57430258E-12
   -7    3    0    1    2   -6.03346466E-05  -4.46346980E-13
   -7    3    0    2    2    1.22025831E-04  -6.60577223E-14
   -7    4    0    1    1    3.65702772E-04   1.09687674E-12
   -7    4    0    2    1    2.27356127E-04  -2.47497428E-14
   -7    4    0    1    2   -2.00655413E-04   6.83837768E-13
   -7    4    0    2    2    3.65702769E-04  -1.10237951E-12
   -7    5    0    1    1    3.50391766E-04   7.24158527E-13
   -7    5    0    2    1   -2.10475677E-04  -1.28198534E-12
   -7    5    0    1    2   -1.65091635E-04   1.34989062E-13
   -7    5    0    2    2    3.50391762E-04  -7.06682559E-13
   -6  -12    0    1    1    3.11834622E-04   9.11178746E-13
   -6  -12    0    2    1   -5.13906835E-04   1.30993626E-12
   -6  -12    0    1    2   -1.65462616E-04  -6.01545880E-13
   -6  -12    0    2    2    3.11834625E-04  -9.01021666E-13
   -6  -11    0    1    1   -3.55541371E-04  -1.06196773E-12
   -6  -11    0    2    1    3.99865299E-04   5.57991064E-13
   -6  -11    0    1    2   -4.81265594E-05  -1.11377200E-12
   -6  -11    0    2    2   -3.55541372E-04   1.05961200E-12
   -6  -10    0    1    1   -3.83191981E-04   3.60682800E-13
   -6  -10    0    2    1    1.04364337E-03   7.19339881E-13
   -6  -10    0    1    2   -5.21896624E-04  -1.75291766E-12
   -6  -10    0    2    2   -3.83191984E-04  -3.51133997E-13
   -6   -9    0    1    1   -2.26494083E-04  -2.67575535E-13
   -6   -9    0    2    1    4.40336607E-04   1.26127635E-12
   -6   -9    0    1    2   -7.06647293E-04  -6.74099629E-13
   -6   -9    0    2    2   -2.26494080E-04   2.72890139E-13
   -6   -8    0    1    1   -5.90227927E-04   8.59359757E-13
   -6   -8    0    2    1    4.88823800E-04   3.11611107E-13
   -6   -8    0    1    2    9.11253314E-05  -6.03113781E-13
   -6   -8    0    2    2   -5.90227928E-04  -8.59837404E-13
   -6   -7    0    1    1   -6.63751184E-04   1.59795364E-12
   -6   -7    0    2    1    4.15264024E-04   2.13578887E-12
   -6   -7    0    1    2    4.83701079E-04   2.43796590E-13
   -6   -7    0    2    2   -6.63751181E-04  -1.59958142E-12
   -6   -6    0    1    1   -4.28428797E-04   6.38285402E-13
   -6   -6    0    2    1   -1.88906295E-04  -6.91274004E-13
   -6   -6    0    1    2   -1.88906297E-04   1.19937421E-12
   -6   -6    0    2    2   -4.28428794E-04  -6.47685995E-13
   -6   -5    0    1    1   -4.76252718E-04   5.79840791E-13
   -6   -5    0    2    1    5.57613092E-04  -1.83657095E-12
   -6   -5    0    1    2    8.11373476E-05   3.97867365E-13
   -6   -5    0    2    2   -4.76252718E-04  -5.79246082E-13
   -6   -4    0    1    1   -3.23858703E-04   1.27471412E-12
   -6   -4    0    2    1    6.17933415E-04  -9.05632650E-13
   -6   -4    0    1    2    1.28540166E-03  -1.00059722E-12
   -6   -4    0    2    2   -3.23858705E-04  -1.27856037E-12
   -6   -3    0    1    1    2.02378822E-04   9.46636122E-13
   -6   -3    0    2    1   -1.66925270E-03   1.02400227E-12
   -6   -3    0    1    2    1.28547661E-03  -1.03064069E-12
   -6   -3    0    2    2    2.02378824E-04  -9.46723283E-13
   -6   -2    0    1    1   -3.23857957E-04  -1.16425146E-12
   -6   -2    0    2    1   -1.66933185E-03   3.98120632E-14
   -6   -2    0    1    2    8.12854433E-05   1.05454294E-12
   -6   -2    0    2    2   -3.23857953E-04   1.15963897E-12
   -6   -1    0    1    1   -4.76254902E-04   3.60299459E-13
   -6   -1    0    2    1    6.17776595E-04   5.58136200E-14
   -6   -1    0    1    2   -1.88961445E-04   9.97959610E-13
   -6   -1    0    2    2   -4.76254902E-04  -3.50845684E-13
   -6    0    0    1    1   -4.28434312E-04   4.15518957E-13
   -6    0    0    2    1    5.57814131E-04  -5.90502545E-13
   -6    0    0    1    2    4.83252290E-04   2.37454363E-12
   -6    0    0    2    2   -4.28434315E-04  -4.01789838E-13
   -6    1    0    1    1   -6.63757870E-04   3.38909896E-13
   -6    1    0    2    1   -1.88106734E-04  -1.93666604E-12
   -6    1    0    1    2    9.05750440E-05  -4.57699981E-13
   -6    1    0    2    2   -6.63757870E-04  -3.45354798E-13
   -6    2    0    1    1   -5.90228439E-04  -3.00058111E-12
   -6    2    0    2    1    4.16116029E-04   2.19827494E-13
   -6    2    0    1    2   -7.06800929E-04   1.30425243E-12
   -6    2    0    2    2   -5.90228438E-04   3.00452801E-12
   -6    3    0    1    1   -2.26493573E-04   1.39163910E-13
   -6    3    0    2    1    4.89155827E-04   2.61067771E-13
   -6    3    0    1    2   -5.21618299E-04   5.91395913E-14
   -6    3    0    2    2   -2.26493570E-04  -1.49868433E-13
   -6    4    0    1    1   -3.83191918E-04   1.20582525E-12
   -6    4    0    2    1    4.39981156E-04   2.51140058E-13
   -6    4    0    1    2   -4.74160091E-05   8.29616892E-13
   -6    4    0    2    2   -3.83191916E-04  -1.20357164E-12
   -6    5    0    1    1   -3.55541659E-04   4.75074139E-13
   -6    5    0    2    1    1.04285098E-03  -1.26147314E-12
   -6    5    0    1    2   -1.64715468E-04  -1.82401678E-13
   -6    5    0    2    2   -3.55541661E-04  -4.77476323E-13
   -6    6    0    1    1    3.11834473E-04  -6.42902151E-13
   -6    6    0    2    1    3.99161808E-04   6.49433121E-13
   -6    6    0    1    2   -3.78925222E-04  -1.16338364E-12
   -6    6    0    2    2    3.11834476E-04   6.30565190E-13
   -5  -12    0    1    1    3.50391764E-04   9.59615545E-13
   -5  -12    0    2    1   -2.10476319E-04  -3.63538766E-14
   -5  -12    0    1    2   -1.65091139E-04  -6.22751000E-13
   -5  -12    0    2    2    3.50391764E-04  -9.57741663E-13
   -5  -11    0    1    1   -3.55541459E-04   5.95849564E-13
   -5  -11    0    2    1   -2.10203504E-04   1.23421713E-12
   -5  -11    0    1    2    3.50704565E-04  -7.48985205E-13
   -5  -11    0    2    2   -3.55541462E-04  -6.07301507E-13
   -5  -10    0    1    1   -6.83465393E-04   3.71453180E-14
   -5  -10    0    2    1    1.04349375E-03   7.91378624E-13
   -5  -10    0    1    2    3.63158631E-04  -7.81040570E-13
   -5  -10    0    2    2   -6.83465396E-04  -2.27047421E-14
   -5   -9    0    1    1    2.97440736E-04   3.96416439E-13
   -5   -9    0    2    1   -4.77413478E-04   9.84026043E-14
   -5   -9    0    1    2    1.38579986E-04  -3.42352058E-13
   -5   -9    0    2    2    2.97440738E-04  -4.14516185E-13
   -5   -8    0    1    1    1.98817162E-04  -8.20918480E-13
   -5   -8    0    2    1   -1.99818077E-03   2.54763182E-13
   -5   -8    0    1    2    1.20625174E-03  -1.47933194E-12
   -5   -8    0    2    2    1.98817163E-04   8.30881916E-13
   -5   -7    0    1    1   -9.64583767E-04   1.09967477E-13
   -5   -7    0    2    1   -4.72580754E-04   1.04130815E-12
   -5   -7    0    1    2    2.25761424E-03  -2.24220100E-12
   -5   -7    0    2    2   -9.64583767E-04  -1.06520237E-13
   -5   -6    0    1    1   -4.76252719E-04   3.57528318E-13
   -5   -6    0    2    1    8.11373473E-05   1.31056264E-12
   -5   -6    0    1    2    5.57613087E-04   6.85268053E-13
   -5   -6    0    2    2   -4.76252717E-04  -3.48776699E-13
   -5   -5    0    1    1    9.48868317E-04   1.12381650E-13
   -5   -5    0    2    1   -1.35332791E-03   3.12155741E-13
   -5   -5    0    1    2   -1.35332792E-03   8.78190634E-13
   -5   -5    0    2    2    9.48868316E-04  -1.06012626E-13
   -5   -4    0    1    1    6.16205112E-04   1.87084851E-12
   -5   -4    0    2    1   -1.16073662E-03  -5.39440267E-13
   -5   -4    0    1    2    4.20908326E-04   8.48792843E-13
   -5   -4    0    2    2    6.16205110E-04  -1.88799835E-12
   -5   -3    0    1    1    6.00464817E-05   1.03712797E-12
   -5   -3    0    2    1    1.01907336E-04  -1.68750490E-12
   -5   -3    0    1    2    1.76993586E-03   1.34886463E-13
   -5   -3    0    2    2    6.00464787E-05  -1.03179704E-12
   -5   -2    0    1    1    6.00473884E-05  -1.67375583E-12
   -5   -2    0    2    1   -1.18658786E-03  -1.37565984E-12
   -5   -2    0    1    2    4.21078930E-04   1.38216492E-12
   -5   -2    0    2    2    6.00473893E-05   1.67047249E-12
   -5   -1    0    1    1    6.16210791E-04  -2.92362934E-13
   -5   -1    0    2    1    1.01549482E-04  -1.95666384E-12
   -5   -1    0    1    2   -1.35323603E-03  -1.05930649E-12
   -5   -1    0    2    2    6.16210793E-04   2.91207068E-13
   -5    0    0    1    1    9.48870406E-04   4.45175155E-13
   -5    0    0    2    1   -1.16123962E-03   1.30461051E-12
   -5    0    0    1    2    5.57222493E-04   1.00824116E-12
   -5    0    0    2    2    9.48870407E-04  -4.50479079E-13
   -5    1    0    1    1   -4.76254733E-04   1.16424373E-12
   -5    1    0    2    1   -1.35321173E-03   2.23021601E-13
   -5    1    0    1    2    2.25665916E-03  -1.52838083E-13
   -5    1    0    2    2   -4.76254734E-04  -1.16584794E-12
   -5    2    0    1    1   -9.64584541E-04  -6.73678346E-13
   -5    2    0    2    1    8.20578208E-05   1.64154671E-12
   -5    2    0    1    2    1.20547628E-03  -7.72445070E-13
   -5    2    0    2    2   -9.64584540E-04   6.81997073E-13
   -5    3    0    1    1    1.98816813E-04  -4.64237116E-13
   -5    3    0    2    1   -4.71591797E-04   6.11051929E-13
   -5    3    0    1    2    1.38534176E-04  -4.94650075E-13
   -5    3    0    2    2    1.98816811E-04   4.69587049E-13
   -5    4    0    1    1    2.97440423E-04   6.70774782E-13
   -5    4    0    2    1   -1.99793819E-03   4.87925484E-13
   -5    4    0    1    2    3.63759357E-04   4.57921238E-13
   -5    4    0    2    2    2.97440426E-04  -6.67224817E-13
   -5    5    0    1    1   -6.83465752E-04  -8.95626974E-13
   -5    5    0    2    1   -4.77914075E-04  -4.78414329E-13
   -5    5    0    1    2    3.51489645E-04   1.17647005E-12
   -5    5    0    2    2   -6.83465752E-04   8.95222762E-13
   -5    6    0    1    1   -3.55541661E-04  -8.55509577E-13
   -5    6    0    2    1    1.04285098E-03   2.94912814E-14
   -5    6    0    1    2   -1.64715466E-04  -1.23012028E-12
   -5    6    0    2    2   -3.55541659E-04   8.47866573E-13
   -5    7    0    1    1    3.50391764E-04   9.59597494E-13
   -5    7    0    2    1   -2.10475677E-04  -3.68380739E-14
   -5    7    0    1    2   -1.65091632E-04  -6.22270728E-13
   -5    7    0    2    2    3.50391764E-04  -9.57758486E-13
   -4  -11    0    1    1    3.65702568E-04   2.55693886E-12
   -4  -11    0    2    1   -1.18859554E-03   1.38330411E-12
   -4  -11    0    1    2   -4.78525393E-05  -1.46605502E-12
   -4  -11    0    2    2    3.65702568E-04  -2.55226333E-12
   -4  -10    0    1    1   -3.83192219E-04  -4.60366350E-13
   -4  -10    0    2    1    2.27667682E-04   1.40213524E-12
   -4  -10    0    1    2    3.63195404E-04   1.39478394E-14
   -4  -10    0    2    2   -3.83192220E-04   4.69811821E-13
   -4   -9    0    1    1    2.97440496E-04  -1.11459984E-12
   -4   -9    0    2    1    4.40412379E-04   5.40415759E-13
   -4   -9    0    1    2    2.80139295E-04  -4.89078085E-13
   -4   -9    0    2    2    2.97440496E-04   1.10156659E-12
   -4   -8    0    1    1    1.34955445E-03  -9.29117872E-14
   -4   -8    0    2    1   -1.99806070E-03   5.49285393E-13
   -4   -8    0    1    2   -2.08414452E-04   4.47983531E-14
   -4   -8    0    2    2    1.34955445E-03   1.02769412E-13
   -4   -7    0    1    1    5.57233027E-04  -1.62660445E-12
   -4   -7    0    2    1   -1.36094765E-03   1.88801005E-13
   -4   -7    0    1    2    3.67358821E-04  -6.82586090E-13
   -4   -7    0    2    2    5.57233026E-04   1.61357940E-12
   -4   -6    0    1    1   -3.23858705E-04  -5.29025406E-13
   -4   -6    0    2    1    1.28540166E-03  -2.28860689E-13
   -4   -6    0    1    2    6.17933415E-04   7.96233553E-13
   -4   -6    0    2    2   -3.23858703E-04   5.33094024E-13
   -4   -5    0    1    1    6.16205110E-04  -7.47569750E-13
   -4   -5    0    2    1    4.20908324E-04  -1.60219404E-12
   -4   -5    0    1    2   -1.16073662E-03   3.56570090E-13
   -4   -5    0    2    2    6.16205111E-04   7.58257595E-13
   -4   -4    0    1    1    1.38296175E-03  -3.43402373E-13
   -4   -4    0    2    1   -9.37392176E-04  -4.31260320E-13
   -4   -4    0    1    2   -9.37392178E-04   1.36233812E-12
   -4   -4    0    2    2    1.38296175E-03   3.37281092E-13
   -4   -3    0    1    1   -6.73927982E-04   1.08656492E-13
   -4   -3    0    2    1   -4.21963656E-05  -4.55600129E-13
   -4   -3    0    1    2   -2.37690484E-04   8.68546479E-13
   -4   -3    0    2    2   -6.73927981E-04  -1.09687406E-13
   -4   -2    0    1    1    1.53283375E-03   7.14517087E-13
   -4   -2    0    2    1   -5.52702569E-04   3.10652939E-13
   -4   -2    0    1    2   -2.37449072E-04   1.78411773E-12
   -4   -2    0    2    2    1.53283375E-03  -7.18169571E-13
   -4   -1    0    1    1   -6.73925275E-04   3.81403452E-13
   -4   -1    0    2    1   -5.53074175E-04  -1.23811292E-12
   -4   -1    0    1    2   -9.36823932E-04   3.78129854E-14
   -4   -1    0    2    2   -6.73925273E-04  -3.75860405E-13
   -4    0    0    1    1    1.38296648E-03  -1.29044439E-12
   -4    0    0    2    1   -4.33499303E-05   7.04039899E-13
   -4    0    0    1    2   -1.16036789E-03  -7.01571564E-13
   -4    0    0    2    2    1.38296648E-03   1.29848080E-12
   -4    1    0    1    1    6.16210772E-04   3.28244425E-13
   -4    1    0    2    1   -9.38517928E-04  -2.19444929E-13
   -4    1    0    1    2    6.17541420E-04  -7.94362171E-13
   -4    1    0    2    2    6.16210770E-04  -3.38746586E-13
   -4    2    0    1    1   -3.23857907E-04   5.08513386E-14
   -4    2    0    2    1    4.20802600E-04   2.15616111E-14
   -4    2    0    1    2    3.66302320E-04  -1.20886357E-12
   -4    2    0    2    2   -3.23857905E-04  -5.53703550E-14
   -4    3    0    1    1    5.57232793E-04  -1.08659767E-12
   -4    3    0    2    1    1.28628603E-03   2.13267420E-13
   -4    3    0    1    2   -2.09176248E-04  -2.17617779E-13
   -4    3    0    2    2    5.57232791E-04   1.08683426E-12
   -4    4    0    1    1    1.34955403E-03  -5.42544541E-13
   -4    4    0    2    1   -1.36002931E-03   7.20989846E-13
   -4    4    0    1    2    2.80220599E-04  -1.06454729E-14
   -4    4    0    2    2    1.34955403E-03   5.55494112E-13
   -4    5    0    1    1    2.97440425E-04  -5.34298119E-13
   -4    5    0    2    1   -1.99793819E-03  -8.13618861E-13
   -4    5    0    1    2    3.63759358E-04  -1.59585536E-13
   -4    5    0    2    2    2.97440424E-04   5.24327542E-13
   -4    6    0    1    1   -3.83191916E-04  -1.59308798E-12
   -4    6    0    2    1    4.39981155E-04   1.12740591E-12
   -4    6    0    1    2   -4.74160116E-05  -6.29025327E-13
   -4    6    0    2    2   -3.83191919E-04   1.59878949E-12
   -4    7    0    1    1    3.65702770E-04   4.57070755E-13
   -4    7    0    2    1    2.27356130E-04   1.20967009E-12
   -4    7    0    1    2   -2.00655412E-04  -6.10251124E-13
   -4    7    0    2    2    3.65702770E-04  -4.65225262E-13
   -3  -11    0    1    1    4.86680812E-04  -1.55945782E-15
   -3  -11    0    2    1   -8.16817642E-04  -3.14577938E-13
   -3  -11    0    1    2   -6.04736514E-05  -1.74688472E-12
   -3  -11    0    2    2    4.86680815E-04  -2.02619831E-15
   -3  -10    0    1    1    1.22025440E-04  -3.00304457E-13
   -3  -10    0    2    1   -8.16722609E-04  -1.48356783E-13
   -3  -10    0    1    2   -5.21999664E-04  -1.25109209E-12
   -3  -10    0    2    2    1.22025438E-04   2.98112643E-13
   -3   -9    0    1    1   -2.26494039E-04  -6.91889103E-13
   -3   -9    0    2    1    1.06163395E-03   1.49125149E-12
   -3   -9    0    1    2    1.38375472E-04  -5.97184866E-13
   -3   -9    0    2    2   -2.26494040E-04   6.78901967E-13
   -3   -8    0    1    1    1.98816642E-04   2.59459335E-13
   -3   -8    0    2    1    4.89175333E-04   3.71220559E-13
   -3   -8    0    1    2   -2.08554928E-04  -5.79710926E-13
   -3   -8    0    2    2    1.98816644E-04  -2.47460698E-13
   -3   -7    0    1    1    5.57232898E-04   3.27068183E-13
   -3   -7    0    2    1   -4.72337044E-04   2.96027610E-13
   -3   -7    0    1    2   -1.95397134E-03  -4.43911470E-13
   -3   -7    0    2    2    5.57232897E-04  -3.30408997E-13
   -3   -6    0    1    1    2.02378824E-04   1.01681329E-12
   -3   -6    0    2    1    1.28547661E-03   9.76673309E-13
   -3   -6    0    1    2   -1.66925270E-03   2.64653987E-13
   -3   -6    0    2    2    2.02378822E-04  -1.00776202E-12
   -3   -5    0    1    1    6.00464800E-05   2.19123612E-14
   -3   -5    0    2    1    1.76993586E-03   2.41986329E-12
   -3   -5    0    1    2    1.01907335E-04   3.81683816E-13
   -3   -5    0    2    2    6.00464804E-05  -3.01688998E-14
   -3   -4    0    1    1   -6.73927982E-04  -1.55264188E-12
   -3   -4    0    2    1   -2.37690482E-04   2.04129306E-13
   -3   -4    0    1    2   -4.21963693E-05  -1.74516825E-13
   -3   -4    0    2    2   -6.73927981E-04   1.55546876E-12
   -3   -3    0    1    1   -2.75152596E-03  -1.94540260E-12
   -3   -3    0    2    1    2.19947027E-03  -6.82156781E-13
   -3   -3    0    1    2    2.19947027E-03  -3.08953744E-13
   -3   -3    0    2    2   -2.75152596E-03   1.95464408E-12
   -3   -2    0    1    1    3.63073615E-03   4.90298801E-13
   -3   -2    0    2    1    7.60622009E-03   1.44042307E-13
   -3   -2    0    1    2   -4.22581343E-03   1.04416999E-13
   -3   -2    0    2    2    3.63073615E-03  -4.88962915E-13
   -3   -1    0    1    1    3.63073217E-03   2.73837536E-12
   -3   -1    0    2    1   -2.66966748E-02  -1.38369225E-12
   -3   -1    0    1    2    2.20048732E-03   6.75588321E-13
   -3   -1    0    2    2    3.63073217E-03  -2.74733736E-12
   -3    0    0    1    1   -2.75152735E-03  -1.84581337E-12
   -3    0    0    2    1    7.60445759E-03  -2.47898452E-13
   -3    0    0    1    2   -4.07181037E-05  -1.10090691E-12
   -3    0    0    2    2   -2.75152735E-03   1.83456388E-12
   -3    1    0    1    1   -6.73925476E-04  -2.05807642E-13
   -3    1    0    2    1    2.19731735E-03   6.84930782E-13
   -3    1    0    1    2    1.02869170E-04   1.25710336E-12
   -3    1    0    2    2   -6.73925477E-04   2.10690728E-13
   -3    2    0    1    1    6.00473045E-05  -8.29331223E-13
   -3    2    0    2    1   -2.39188090E-04  -9.67785722E-13
   -3    2    0    1    2   -1.66950943E-03   1.78374152E-15
   -3    2    0    2    2    6.00473045E-05   8.34158355E-13
   -3    3    0    1    1    2.02378964E-04   4.40230146E-13
   -3    3    0    2    1    1.76969441E-03  -2.81501594E-13
   -3    3    0    1    2   -1.95495711E-03  -2.90083533E-13
   -3    3    0    2    2    2.02378967E-04  -4.39879605E-13
   -3    4    0    1    1    5.57232792E-04  -1.52988459E-13
   -3    4    0    2    1    1.28628604E-03   4.96799248E-13
   -3    4    0    1    2   -2.09176250E-04  -1.19550131E-13
   -3    4    0    2    2    5.57232792E-04   1.50926657E-13
   -3    5    0    1    1    1.98816813E-04   2.20253236E-13
   -3    5    0    2    1   -4.71591796E-04  -2.15831120E-13
   -3    5    0    1    2    1.38534178E-04   5.26829661E-13
   -3    5    0    2    2    1.98816812E-04  -2.20338512E-13
   -3    6    0    1    1   -2.26493572E-04   2.32739091E-13
   -3    6    0    2    1    4.89155826E-04  -9.79732238E-13
   -3    6    0    1    2   -5.21618301E-04  -1.62566628E-12
   -3    6    0    2    2   -2.26493571E-04  -2.22912659E-13
   -3    7    0    1    1    1.22025830E-04  -4.93941725E-13
   -3    7    0    2    1    1.06133321E-03   3.38509298E-13
   -3    7    0    1    2   -6.03346478E-05  -9.51818036E-13
   -3    7    0    2    2    1.22025829E-04   4.93458527E-13
   -3    8    0    1    1    4.86680812E-04  -1.72023771E-15
   -3    8    0    2    1   -8.16818402E-04  -3.14246442E-13
   -3    8    0    1    2   -6.04730918E-05  -1.74629888E-12
   -3    8    0    2    2    4.86680815E-04  -2.18697790E-15
   -2  -10    0    1    1   -1.74734607E-04  -1.15415768E-12
   -2  -10    0    2    1   -4.67677340E-04  -2.58103924E-12
   -2  -10    0    1    2   -3.61379503E-04   1.74452791E-13
   -2  -10    0    2    2   -1.74734608E-04   1.15113056E-12
   -2   -9    0    1    1    6.00355885E-05   1.44085996E-12
   -2   -9    0    2    1    2.29337414E-04  -5.20798038E-13
   -2   -9    0    1    2   -7.06997539E-04  -8.40341250E-13
   -2   -9    0    2    2    6.00355854E-05  -1.43845229E-12
   -2   -8    0    1    1   -5.90228549E-04   1.54773456E-12
   -2   -8    0    2    1    9.05720766E-04   3.93842246E-13
   -2   -8    0    1    2    1.20590560E-03   8.90687872E-14
   -2   -8    0    2    2   -5.90228546E-04  -1.55603171E-12
   -2   -7    0    1    1   -9.64584786E-04  -3.88733367E-13
   -2   -7    0    2    1    4.15544067E-04  -4.95392683E-13
   -2   -7    0    1    2    3.67175892E-04  -2.69495467E-13
   -2   -7    0    2    2   -9.64584784E-04   3.89525465E-13
   -2   -6    0    1    1   -3.23857954E-04  -7.38472963E-14
   -2   -6    0    2    1    8.12854427E-05   4.72065518E-13
   -2   -6    0    1    2   -1.66933185E-03  -2.71553422E-12
   -2   -6    0    2    2   -3.23857956E-04   7.17237404E-14
   -2   -5    0    1    1    6.00473906E-05   1.15791628E-12
   -2   -5    0    2    1    4.21078934E-04   1.39529914E-12
   -2   -5    0    1    2   -1.18658786E-03  -1.68643471E-12
   -2   -5    0    2    2    6.00473871E-05  -1.16566266E-12
   -2   -4    0    1    1    1.53283375E-03  -2.20143695E-13
   -2   -4    0    2    1   -2.37449072E-04   1.40271773E-12
   -2   -4    0    1    2   -5.52702572E-04   1.12294495E-12
   -2   -4    0    2    2    1.53283375E-03   2.22678936E-13
   -2   -3    0    1    1    3.63073615E-03  -2.96824720E-13
   -2   -3    0    2    1   -4.22581343E-03  -1.90880780E-12
   -2   -3    0    1    2    7.60622009E-03   1.29165482E-12
   -2   -3    0    2    2    3.63073615E-03   2.93826738E-13
   -2   -2    0    1    1   -2.04045967E-02  -5.85597933E-13
   -2   -2    0    2    1   -9.38775876E-03  -1.35636093E-12
   -2   -2    0    1    2   -9.38775876E-03   9.76061269E-13
   -2   -2    0    2    2   -2.04045967E-02   5.95618593E-13
   -2   -1    0    1    1    5.67238870E-02   2.33676643E-12
   -2   -1    0    2    1    1.55204757E-02  -1.00935822E-12
   -2   -1    0    1    2   -9.38623740E-03   1.95271255E-12
   -2   -1    0    2    2    5.67238870E-02  -2.32516685E-12
   -2    0    0    1    1   -2.04046012E-02   1.82224816E-12
   -2    0    0    2    1    1.55174556E-02  -1.74525719E-12
   -2    0    0    1    2    7.60876023E-03  -7.79941626E-13
   -2    0    0    2    2   -2.04046012E-02  -1.82456149E-12
   -2    1    0    1    1    3.63073150E-03  -2.41612849E-14
   -2    1    0    2    1   -9.38958719E-03  -2.91369115E-13
   -2    1    0    1    2   -5.50509277E-04   3.80808921E-13
   -2    1    0    2    2    3.63073150E-03   1.43016178E-14
   -2    2    0    1    1    1.53283332E-03  -6.23542178E-14
   -2    2    0    2    1   -4.22832407E-03   3.09351932E-13
   -2    2    0    1    2   -1.18544862E-03   3.24407494E-14
   -2    2    0    2    2    1.53283332E-03   6.41076895E-14
   -2    3    0    1    1    6.00473061E-05  -4.45917600E-13
   -2    3    0    2    1   -2.39188091E-04  -7.01467645E-14
   -2    3    0    1    2   -1.66950943E-03  -9.22147041E-14
   -2    3    0    2    2    6.00473029E-05   4.40512777E-13
   -2    4    0    1    1   -3.23857906E-04   1.44648769E-12
   -2    4    0    2    1    4.20802598E-04   5.39862477E-13
   -2    4    0    1    2    3.66302321E-04  -5.86966140E-13
   -2    4    0    2    2   -3.23857905E-04  -1.44090582E-12
   -2    5    0    1    1   -9.64584540E-04  -8.86825000E-13
   -2    5    0    2    1    8.20578175E-05  -6.80048758E-13
   -2    5    0    1    2    1.20547628E-03   1.50867189E-12
   -2    5    0    2    2   -9.64584541E-04   8.71197862E-13
   -2    6    0    1    1   -5.90228438E-04  -7.27586777E-13
   -2    6    0    2    1    4.16116027E-04  -5.03534624E-13
   -2    6    0    1    2   -7.06800928E-04   2.80453595E-13
   -2    6    0    2    2   -5.90228438E-04   7.30614467E-13
   -2    7    0    1    1    6.00353618E-05   9.07698337E-13
   -2    7    0    2    1    9.05680847E-04   6.34328405E-13
   -2    7    0    1    2   -3.61179707E-04   1.11515611E-12
   -2    7    0    2    2    6.00353651E-05  -8.98887215E-13
   -2    8    0    1    1   -1.74734791E-04   6.53940123E-13
   -2    8    0    2    1    2.29208978E-04  -1.46364376E-12
   -2    8    0    1    2    1.02461102E-03   1.69018275E-12
   -2    8    0    2    2   -1.74734787E-04  -6.42287882E-13
   -1  -10    0    1    1   -1.06323175E-03  -6.13121835E-13
   -1  -10    0    2    1    4.42470621E-04   5.36676155E-13
   -1  -10    0    1    2    1.17713596E-03   1.28025917E-12
   -1  -10    0    2    2   -1.06323175E-03   6.18158667E-13
   -1   -9    0    1    1    1.11498726E-04  -5.88972222E-13
   -1   -9    0    2    1    4.42351963E-04   8.41169933E-13
   -1   -9    0    1    2   -1.31604712E-03  -7.73968225E-13
   -1   -9    0    2    2    1.11498722E-04   5.94571317E-13
   -1   -8    0    1    1    7.11291283E-04   9.14821005E-13
   -1   -8    0    2    1   -5.69155398E-04   2.89970762E-14
   -1   -8    0    1    2    9.09017912E-05   3.73958681E-13
   -1   -8    0    2    2    7.11291287E-04  -9.13221150E-13
   -1   -7    0    1    1   -6.63757878E-04  -8.71060008E-13
   -1   -7    0    2    1   -3.69428513E-04   9.00078921E-13
   -1   -7    0    1    2    2.25748253E-03  -3.19922634E-13
   -1   -7    0    2    2   -6.63757877E-04   8.78878945E-13
   -1   -6    0    1    1   -4.76254901E-04  -3.52455727E-13
   -1   -6    0    2    1   -1.88961446E-04   9.82792848E-13
   -1   -6    0    1    2    6.17776592E-04  -1.57855458E-14
   -1   -6    0    2    2   -4.76254903E-04   3.50965962E-13
   -1   -5    0    1    1    6.16210794E-04   1.11610844E-12
   -1   -5    0    2    1   -1.35323603E-03   5.91033680E-13
   -1   -5    0    1    2    1.01549480E-04  -9.86361010E-13
   -1   -5    0    2    2    6.16210791E-04  -1.12388135E-12
   -1   -4    0    1    1   -6.73925273E-04   1.49129618E-12
   -1   -4    0    2    1   -9.36823931E-04  -6.45485631E-13
   -1   -4    0    1    2   -5.53074174E-04   7.09567955E-13
   -1   -4    0    2    2   -6.73925274E-04  -1.48778413E-12
   -1   -3    0    1    1    3.63073217E-03  -1.10683626E-12
   -1   -3    0    2    1    2.20048732E-03  -1.22856643E-12
   -1   -3    0    1    2   -2.66966748E-02   1.41898414E-12
   -1   -3    0    2    2    3.63073217E-03   1.10434800E-12
   -1   -2    0    1    1    5.67238870E-02  -4.23375948E-13
   -1   -2    0    2    1   -9.38623740E-03   6.84557347E-13
   -1   -2    0    1    2    1.55204757E-02  -1.56024169E-13
   -1   -2    0    2    2    5.67238870E-02   4.19724570E-13
   -1   -1    0    1    1    2.35704722E-01  -8.00467984E-13
   -1   -1    0    2    1   -2.84861627E-01   8.14920180E-13
   -1   -1    0    1    2   -2.84861627E-01   1.35218910E-12
   -1   -1    0    2    2    2.35704722E-01   7.96036002E-13
   -1    0    0    1    1    2.35704718E-01   1.48018076E-12
   -1    0    0    2    1   -3.00657720E+00  -2.23592863E-12
   -1    0    0    1    2    1.55240289E-02   1.07051994E-12
   -1    0    0    2    2    2.35704718E-01  -1.48093384E-12
   -1    1    0    1    1    5.67238834E-02  -3.80176543E-13
   -1    1    0    2    1   -2.84868434E-01  -5.27937073E-13
   -1    1    0    1    2   -2.66948593E-02  -2.84476950E-13
   -1    1    0    2    2    5.67238834E-02   3.90521561E-13
   -1    2    0    1    1    3.63073150E-03  -4.15675248E-13
   -1    2    0    2    1   -9.38958719E-03   7.16183513E-13
   -1    2    0    1    2   -5.50509277E-04   2.43805000E-13
   -1    2    0    2    2    3.63073150E-03   4.24760834E-13
   -1    3    0    1    1   -6.73925477E-04   4.97736176E-14
   -1    3    0    2    1    2.19731735E-03  -7.57381880E-13
   -1    3    0    1    2    1.02869172E-04  -1.24914578E-13
   -1    3    0    2    2   -6.73925476E-04  -6.01223635E-14
   -1    4    0    1    1    6.16210771E-04   2.17239824E-13
   -1    4    0    2    1   -9.38517929E-04  -2.62665431E-13
   -1    4    0    1    2    6.17541423E-04   3.13544425E-13
   -1    4    0    2    2    6.16210771E-04  -2.13852316E-13
   -1    5    0    1    1   -4.76254734E-04  -2.95600536E-13
   -1    5    0    2    1   -1.35321173E-03   3.48161506E-13
   -1    5    0    1    2    2.25665916E-03   5.62220748E-13
   -1    5    0    2    2   -4.76254734E-04   2.94728606E-13
   -1    6    0    1    1   -6.63757869E-04  -1.40693707E-12
   -1    6    0    2    1   -1.88106733E-04   6.10116586E-13
   -1    6    0    1    2    9.05750451E-05  -1.25737538E-12
   -1    6    0    2    2   -6.63757871E-04   1.40309595E-12
   -1    7    0    1    1    7.11290788E-04  -1.98737702E-12
   -1    7    0    2    1   -3.68938641E-04   2.65203387E-12
   -1    7    0    1    2   -1.31596388E-03  -7.00391600E-13
   -1    7    0    2    2    7.11290789E-04   1.98758012E-12
   -1    8    0    1    1    1.11498106E-04   8.72439291E-13
   -1    8    0    2    1   -5.69093484E-04   7.48311326E-13
   -1    8    0    1    2    1.17718436E-03   1.53416946E-12
   -1    8    0    2    2    1.11498110E-04  -8.82572116E-13
   -1    9    0    1    1   -1.06323175E-03  -6.13484705E-13
   -1    9    0    2    1    4.42340365E-04   5.38123875E-13
   -1    9    0    1    2    1.17714620E-03   1.28173539E-12
   -1    9    0    2    2   -1.06323175E-03   6.17794570E-13
    0   -9    0    1    1   -8.50654551E-04  -1.37141037E-12
    0   -9    0    2    1    1.64478865E-03   1.69478769E-12
    0   -9    0    1    2   -2.97336566E-04  -4.37267742E-13
    0   -9    0    2    2   -8.50654555E-04   1.37843771E-12
    0   -8    0    1    1    1.22204867E-03   5.02023849E-13
    0   -8    0    2    1   -2.97362887E-04   2.75066965E-13
    0   -8    0    1    2   -1.53622852E-03  -7.11459173E-13
    0   -8    0    2    2    1.22204867E-03  -5.01320488E-13
    0   -7    0    1    1    7.21331741E-04  -2.94623872E-13
    0   -7    0    2    1   -1.53650911E-03   1.75361039E-12
    0   -7    0    1    2    4.84052765E-04  -1.51538178E-12
    0   -7    0    2    2    7.21331741E-04   2.96119715E-13
    0   -6    0    1    1   -4.28434312E-04   8.64654598E-14
    0   -6    0    2    1    4.83252286E-04   2.08262387E-12
    0   -6    0    1    2    5.57814131E-04  -1.67272520E-12
    0   -6    0    2    2   -4.28434315E-04  -9.53627478E-14
    0   -5    0    1    1    9.48870407E-04   1.31661781E-12
    0   -5    0    2    1    5.57222494E-04   9.72572710E-13
    0   -5    0    1    2   -1.16123962E-03  -2.68677161E-13
    0   -5    0    2    2    9.48870406E-04  -1.30924182E-12
    0   -4    0    1    1    1.38296648E-03   1.03387301E-12
    0   -4    0    2    1   -1.16036789E-03   7.68717974E-13
    0   -4    0    1    2   -4.33499291E-05   1.07708717E-12
    0   -4    0    2    2    1.38296648E-03  -1.03647568E-12
    0   -3    0    1    1   -2.75152735E-03  -9.63042136E-13
    0   -3    0    2    1   -4.07181040E-05  -1.10150877E-12
    0   -3    0    1    2    7.60445759E-03   2.40940738E-13
    0   -3    0    2    2   -2.75152735E-03   9.67821072E-13
    0   -2    0    1    1   -2.04046012E-02  -2.80903906E-13
    0   -2    0    2    1    7.60876023E-03   2.38844820E-13
    0   -2    0    1    2    1.55174556E-02  -1.50063567E-12
    0   -2    0    2    2   -2.04046012E-02   2.75234687E-13
    0   -1    0    1    1    2.35704718E-01  -3.00508712E-13
    0   -1    0    2    1    1.55240289E-02   7.87838943E-13
    0   -1    0    1    2   -3.00657720E+00   1.59455032E-12
    0   -1    0    2    2    2.35704718E-01   3.02739405E-13
    0    0    0    1    1    1.48268851E-01   0.00000000E+00
    0    0    0    2    1   -3.00657036E+00  -2.10293176E-12
    0    0    0    1    2   -3.00657036E+00   2.10293176E-12
    0    0    0    2    2    1.48268851E-01   0.00000000E+00
    0    1    0    1    1    2.35704718E-01   3.00508712E-13
    0    1    0    2    1   -3.00657720E+00  -1.59455032E-12
    0    1    0    1    2    1.55240289E-02  -7.87838943E-13
    0    1    0    2    2    2.35704718E-01  -3.02739405E-13
    0    2    0    1    1   -2.04046012E-02   2.80903906E-13
    0    2    0    2    1    1.55174556E-02   1.50063567E-12
    0    2    0    1    2    7.60876023E-03  -2.38844820E-13
    0    2    0    2    2   -2.04046012E-02  -2.75234687E-13
    0    3    0    1    1   -2.75152735E-03   9.63042136E-13
    0    3    0    2    1    7.60445759E-03  -2.40940738E-13
    0    3    0    1    2   -4.07181040E-05   1.10150877E-12
    0    3    0    2    2   -2.75152735E-03  -9.67821072E-13
    0    4    0    1    1    1.38296648E-03  -1.03387301E-12
    0    4    0    2    1   -4.33499291E-05  -1.07708717E-12
    0    4    0    1    2   -1.16036789E-03  -7.68717974E-13
    0    4    0    2    2    1.38296648E-03   1.03647568E-12
    0    5    0    1    1    9.48870407E-04  -1.31661781E-12
    0    5    0    2    1   -1.16123962E-03   2.68677161E-13
    0    5    0    1    2    5.57222494E-04  -9.72572710E-13
    0    5    0    2    2    9.48870406E-04   1.30924182E-12
    0    6    0    1    1   -4.28434312E-04  -8.64654598E-14
    0    6    0    2    1    5.57814131E-04   1.67272520E-12
    0    6    0    1    2    4.83252286E-04  -2.08262387E-12
    0    6    0    2    2   -4.28434315E-04   9.53627478E-14
    0    7    0    1    1    7.21331741E-04   2.94623872E-13
    0    7    0    2    1    4.84052765E-04   1.51538178E-12
    0    7    0    1    2   -1.53650911E-03  -1.75361039E-12
    0    7    0    2    2    7.21331741E-04  -2.96119715E-13
    0    8    0    1    1    1.22204867E-03  -5.02023849E-13
    0    8    0    2    1   -1.53622852E-03   7.11459173E-13
    0    8    0    1    2   -2.97362887E-04  -2.75066965E-13
    0    8    0    2    2    1.22204867E-03   5.01320488E-13
    0    9    0    1    1   -8.50654551E-04   1.37141037E-12
    0    9    0    2    1   -2.97336566E-04   4.37267742E-13
    0    9    0    1    2    1.64478865E-03  -1.69478769E-12
    0    9    0    2    2   -8.50654555E-04  -1.37843771E-12
    1   -9    0    1    1   -1.06323175E-03   6.13484705E-13
    1   -9    0    2    1    1.17714620E-03  -1.28173539E-12
    1   -9    0    1    2    4.42340365E-04  -5.38123875E-13
    1   -9    0    2    2   -1.06323175E-03  -6.17794570E-13
    1   -8    0    1    1    1.11498106E-04  -8.72439291E-13
    1   -8    0    2    1    1.17718436E-03  -1.53416946E-12
    1   -8    0    1    2   -5.69093484E-04  -7.48311326E-13
    1   -8    0    2    2    1.11498110E-04   8.82572116E-13
    1   -7    0    1    1    7.11290788E-04   1.98737702E-12
    1   -7    0    2    1   -1.31596388E-03   7.00391600E-13
    1   -7    0    1    2   -3.68938641E-04  -2.65203387E-12
    1   -7    0    2    2    7.11290789E-04  -1.98758012E-12
    1   -6    0    1    1   -6.63757869E-04   1.40693707E-12
    1   -6    0    2    1    9.05750451E-05   1.25737538E-12
    1   -6    0    1    2   -1.88106733E-04  -6.10116586E-13
    1   -6    0    2    2   -6.63757871E-04  -1.40309595E-12
    1   -5    0    1    1   -4.76254734E-04   2.95600536E-13
    1   -5    0    2    1    2.25665916E-03  -5.62220748E-13
    1   -5    0    1    2   -1.35321173E-03  -3.48161506E-13
    1   -5    0    2    2   -4.76254734E-04  -2.94728606E-13
    1   -4    0    1    1    6.16210771E-04  -2.17239824E-13
    1   -4    0    2    1    6.17541423E-04  -3.13544425E-13
    1   -4    0    1    2   -9.38517929E-04   2.62665431E-13
    1   -4    0    2    2    6.16210771E-04   2.13852316E-13
    1   -3    0    1    1   -6.73925477E-04  -4.97736176E-14
    1   -3    0    2    1    1.02869172E-04   1.24914578E-13
    1   -3    0    1    2    2.19731735E-03   7.57381880E-13
    1   -3    0    2    2   -6.73925476E-04   6.01223635E-14
    1   -2    0    1    1    3.63073150E-03   4.15675248E-13
    1   -2    0    2    1   -5.50509277E-04  -2.43805000E-13
    1   -2    0    1    2   -9.38958719E-03  -7.16183513E-13
    1   -2    0    2    2    3.63073150E-03  -4.24760834E-13
    1   -1    0    1    1    5.67238834E-02   3.80176543E-13
    1   -1    0    2    1   -2.66948593E-02   2.84476950E-13
    1   -1    0    1    2   -2.84868434E-01   5.27937073E-13
    1   -1    0    2    2    5.67238834E-02  -3.90521561E-13
    1    0    0    1    1    2.35704718E-01  -1.48018076E-12
    1    0    0    2    1    1.55240289E-02  -1.07051994E-12
    1    0    0    1    2   -3.00657720E+00   2.23592863E-12
    1    0    0    2    2    2.35704718E-01   1.48093384E-12
    1    1    0    1    1    2.35704722E-01   8.00467984E-13
    1    1    0    2    1   -2.84861627E-01  -1.35218910E-12
    1    1    0    1    2   -2.84861627E-01  -8.14920180E-13
    1    1    0    2    2    2.35704722E-01  -7.96036002E-13
    1    2    0    1    1    5.67238870E-02   4.23375948E-13
    1    2    0    2    1    1.55204757E-02   1.56024169E-13
    1    2    0    1    2   -9.38623740E-03  -6.84557347E-13
    1    2    0    2    2    5.67238870E-02  -4.19724570E-13
    1    3    0    1    1    3.63073217E-03   1.10683626E-12
    1    3    0    2    1   -2.66966748E-02  -1.41898414E-12
    1    3    0    1    2    2.20048732E-03   1.22856643E-12
    1    3    0    2    2    3.63073217E-03  -1.10434800E-12
    1    4    0    1    1   -6.73925273E-04  -1.49129618E-12
    1    4    0    2    1   -5.53074174E-04  -7.09567955E-13
    1    4    0    1    2   -9.36823931E-04   6.45485631E-13
    1    4    0    2    2   -6.73925274E-04   1.48778413E-12
    1    5    0    1    1    6.16210794E-04  -1.11610844E-12
    1    5    0    2    1    1.01549480E-04   9.86361010E-13
    1    5    0    1    2   -1.35323603E-03  -5.91033680E-13
    1    5    0    2    2    6.16210791E-04   1.12388135E-12
    1    6    0    1    1   -4.76254901E-04   3.52455727E-13
    1    6    0    2    1    6.17776592E-04   1.57855458E-14
    1    6    0    1    2   -1.88961446E-04  -9.82792848E-13
    1    6    0    2    2   -4.76254903E-04  -3.50965962E-13
    1    7    0    1    1   -6.63757878E-04   8.71060008E-13
    1    7    0    2    1    2.25748253E-03   3.19922634E-13
    1    7    0    1    2   -3.69428513E-04  -9.00078921E-13
    1    7    0    2    2   -6.63757877E-04  -8.78878945E-13
    1    8    0    1    1    7.11291283E-04  -9.14821005E-13
    1    8    0    2    1    9.09017912E-05  -3.73958681E-13
    1    8    0    1    2   -5.69155398E-04  -2.89970762E-14
    1    8    0    2    2    7.11291287E-04   9.13221150E-13
    1    9    0    1    1    1.11498726E-04   5.88972222E-13
    1    9    0    2    1   -1.31604712E-03   7.73968225E-13
    1    9    0    1    2    4.42351963E-04  -8.41169933E-13
    1    9    0    2    2    1.11498722E-04  -5.94571317E-13
    1   10    0    1    1   -1.06323175E-03   6.13121835E-13
    1   10    0    2    1    1.17713596E-03  -1.28025917E-12
    1   10    0    1    2    4.42470621E-04  -5.36676155E-13
    1   10    0    2    2   -1.06323175E-03  -6.18158667E-13
    2   -8    0    1    1   -1.74734791E-04  -6.53940123E-13
    2   -8    0    2    1    1.02461102E-03  -1.69018275E-12
    2   -8    0    1    2    2.29208978E-04   1.46364376E-12
    2   -8    0    2    2   -1.74734787E-04   6.42287882E-13
    2   -7    0    1    1    6.00353618E-05  -9.07698337E-13
    2   -7    0    2    1   -3.61179707E-04  -1.11515611E-12
    2   -7    0    1    2    9.05680847E-04  -6.34328405E-13
    2   -7    0    2    2    6.00353651E-05   8.98887215E-13
    2   -6    0    1    1   -5.90228438E-04   7.27586777E-13
    2   -6    0    2    1   -7.06800928E-04  -2.80453595E-13
    2   -6    0    1    2    4.16116027E-04   5.03534624E-13
    2   -6    0    2    2   -5.90228438E-04  -7.30614467E-13
    2   -5    0    1    1   -9.64584540E-04   8.86825000E-13
    2   -5    0    2    1    1.20547628E-03  -1.50867189E-12
    2   -5    0    1    2    8.20578175E-05   6.80048758E-13
    2   -5    0    2    2   -9.64584541E-04  -8.71197862E-13
    2   -4    0    1    1   -3.23857906E-04  -1.44648769E-12
    2   -4    0    2    1    3.66302321E-04   5.86966140E-13
    2   -4    0    1    2    4.20802598E-04  -5.39862477E-13
    2   -4    0    2    2   -3.23857905E-04   1.44090582E-12
    2   -3    0    1    1    6.00473061E-05   4.45917600E-13
    2   -3    0    2    1   -1.66950943E-03   9.22147041E-14
    2   -3    0    1    2   -2.39188091E-04   7.01467645E-14
    2   -3    0    2    2    6.00473029E-05  -4.40512777E-13
    2   -2    0    1    1    1.53283332E-03   6.23542178E-14
    2   -2    0    2    1   -1.18544862E-03  -3.24407494E-14
    2   -2    0    1    2   -4.22832407E-03  -3.09351932E-13
    2   -2    0    2    2    1.53283332E-03  -6.41076895E-14
    2   -1    0    1    1    3.63073150E-03   2.41612849E-14
    2   -1    0    2    1   -5.50509277E-04  -3.80808921E-13
    2   -1    0    1    2   -9.38958719E-03   2.91369115E-13
    2   -1    0    2    2    3.63073150E-03  -1.43016178E-14
    2    0    0    1    1   -2.04046012E-02  -1.82224816E-12
    2    0    0    2    1    7.60876023E-03   7.79941626E-13
    2    0    0    1    2    1.55174556E-02   1.74525719E-12
    2    0    0    2    2   -2.04046012E-02   1.82456149E-12
    2    1    0    1    1    5.67238870E-02  -2.33676643E-12
    2    1    0    2    1   -9.38623740E-03  -1.95271255E-12
    2    1    0    1    2    1.55204757E-02   1.00935822E-12
    2    1    0    2    2    5.67238870E-02   2.32516685E-12
    2    2    0    1    1   -2.04045967E-02   5.85597933E-13
    2    2    0    2    1   -9.38775876E-03  -9.76061269E-13
    2    2    0    1    2   -9.38775876E-03   1.35636093E-12
    2    2    0    2    2   -2.04045967E-02  -5.95618593E-13
    2    3    0    1    1    3.63073615E-03   2.96824720E-13
    2    3    0    2    1    7.60622009E-03  -1.29165482E-12
    2    3    0    1    2   -4.22581343E-03   1.90880780E-12
    2    3    0    2    2    3.63073615E-03  -2.93826738E-13
    2    4    0    1    1    1.53283375E-03   2.20143695E-13
    2    4    0    2    1   -5.52702572E-04  -1.12294495E-12
    2    4    0    1    2   -2.37449072E-04  -1.40271773E-12
    2    4    0    2    2    1.53283375E-03  -2.22678936E-13
    2    5    0    1    1    6.00473906E-05  -1.15791628E-12
    2    5    0    2    1   -1.18658786E-03   1.68643471E-12
    2    5    0    1    2    4.21078934E-04  -1.39529914E-12
    2    5    0    2    2    6.00473871E-05   1.16566266E-12
    2    6    0    1    1   -3.23857954E-04   7.38472963E-14
    2    6    0    2    1   -1.66933185E-03   2.71553422E-12
    2    6    0    1    2    8.12854427E-05  -4.72065518E-13
    2    6    0    2    2   -3.23857956E-04  -7.17237404E-14
    2    7    0    1    1   -9.64584786E-04   3.88733367E-13
    2    7    0    2    1    3.67175892E-04   2.69495467E-13
    2    7    0    1    2    4.15544067E-04   4.95392683E-13
    2    7    0    2    2   -9.64584784E-04  -3.89525465E-13
    2    8    0    1    1   -5.90228549E-04  -1.54773456E-12
    2    8    0    2    1    1.20590560E-03  -8.90687872E-14
    2    8    0    1    2    9.05720766E-04  -3.93842246E-13
    2    8    0    2    2   -5.90228546E-04   1.55603171E-12
    2    9    0    1    1    6.00355885E-05  -1.44085996E-12
    2    9    0    2    1   -7.06997539E-04   8.40341250E-13
    2    9    0    1    2    2.29337414E-04   5.20798038E-13
    2    9    0    2    2    6.00355854E-05   1.43845229E-12
    2   10    0    1    1   -1.74734607E-04   1.15415768E-12
    2   10    0    2    1   -3.61379503E-04  -1.74452791E-13
    2   10    0    1    2   -4.67677340E-04   2.58103924E-12
    2   10    0    2    2   -1.74734608E-04  -1.15113056E-12
    3   -8    0    1    1    4.86680812E-04   1.72023771E-15
    3   -8    0    2    1   -6.04730918E-05   1.74629888E-12
    3   -8    0    1    2   -8.16818402E-04   3.14246442E-13
    3   -8    0    2    2    4.86680815E-04   2.18697790E-15
    3   -7    0    1    1    1.22025830E-04   4.93941725E-13
    3   -7    0    2    1   -6.03346478E-05   9.51818036E-13
    3   -7    0    1    2    1.06133321E-03  -3.38509298E-13
    3   -7    0    2    2    1.22025829E-04  -4.93458527E-13
    3   -6    0    1    1   -2.26493572E-04  -2.32739091E-13
    3   -6    0    2    1   -5.21618301E-04   1.62566628E-12
    3   -6    0    1    2    4.89155826E-04   9.79732238E-13
    3   -6    0    2    2   -2.26493571E-04   2.22912659E-13
    3   -5    0    1    1    1.98816813E-04  -2.20253236E-13
    3   -5    0    2    1    1.38534178E-04  -5.26829661E-13
    3   -5    0    1    2   -4.71591796E-04   2.15831120E-13
    3   -5    0    2    2    1.98816812E-04   2.20338512E-13
    3   -4    0    1    1    5.57232792E-04   1.52988459E-13
    3   -4    0    2    1   -2.09176250E-04   1.19550131E-13
    3   -4    0    1    2    1.28628604E-03  -4.96799248E-13
    3   -4    0    2    2    5.57232792E-04  -1.50926657E-13
    3   -3    0    1    1    2.02378964E-04  -4.40230146E-13
    3   -3    0    2    1   -1.95495711E-03   2.90083533E-13
    3   -3    0    1    2    1.76969441E-03   2.81501594E-13
    3   -3    0    2    2    2.02378967E-04   4.39879605E-13
    3   -2    0    1    1    6.00473045E-05   8.29331223E-13
    3   -2    0    2    1   -1.66950943E-03  -1.78374152E-15
    3   -2    0    1    2   -2.39188090E-04   9.67785722E-13
    3   -2    0    2    2    6.00473045E-05  -8.34158355E-13
    3   -1    0    1    1   -6.73925476E-04   2.05807642E-13
    3   -1    0    2    1    1.02869170E-04  -1.25710336E-12
    3   -1    0    1    2    2.19731735E-03  -6.84930782E-13
    3   -1    0    2    2   -6.73925477E-04  -2.10690728E-13
    3    0    0    1    1   -2.75152735E-03   1.84581337E-12
    3    0    0    2    1   -4.07181037E-05   1.10090691E-12
    3    0    0    1    2    7.60445759E-03   2.47898452E-13
    3    0    0    2    2   -2.75152735E-03  -1.83456388E-12
    3    1    0    1    1    3.63073217E-03  -2.73837536E-12
    3    1    0    2    1    2.20048732E-03  -6.75588321E-13
    3    1    0    1    2   -2.66966748E-02   1.38369225E-12
    3    1    0    2    2    3.63073217E-03   2.74733736E-12
    3    2    0    1    1    3.63073615E-03  -4.90298801E-13
    3    2    0    2    1   -4.22581343E-03  -1.04416999E-13
    3    2    0    1    2    7.60622009E-03  -1.44042307E-13
    3    2    0    2    2    3.63073615E-03   4.88962915E-13
    3    3    0    1    1   -2.75152596E-03   1.94540260E-12
    3    3    0    2    1    2.19947027E-03   3.08953744E-13
    3    3    0    1    2    2.19947027E-03   6.82156781E-13
    3    3    0    2    2   -2.75152596E-03  -1.95464408E-12
    3    4    0    1    1   -6.73927982E-04   1.55264188E-12
    3    4    0    2    1   -4.21963693E-05   1.74516825E-13
    3    4    0    1    2   -2.37690482E-04  -2.04129306E-13
    3    4    0    2    2   -6.73927981E-04  -1.55546876E-12
    3    5    0    1    1    6.00464800E-05  -2.19123612E-14
    3    5    0    2    1    1.01907335E-04  -3.81683816E-13
    3    5    0    1    2    1.76993586E-03  -2.41986329E-12
    3    5    0    2    2    6.00464804E-05   3.01688998E-14
    3    6    0    1    1    2.02378824E-04  -1.01681329E-12
    3    6    0    2    1   -1.66925270E-03  -2.64653987E-13
    3    6    0    1    2    1.28547661E-03  -9.76673309E-13
    3    6    0    2    2    2.02378822E-04   1.00776202E-12
    3    7    0    1    1    5.57232898E-04  -3.27068183E-13
    3    7    0    2    1   -1.95397134E-03   4.43911470E-13
    3    7    0    1    2   -4.72337044E-04  -2.96027610E-13
    3    7    0    2    2    5.57232897E-04   3.30408997E-13
    3    8    0    1    1    1.98816642E-04  -2.59459335E-13
    3    8    0    2    1   -2.08554928E-04   5.79710926E-13
    3    8    0    1    2    4.89175333E-04  -3.71220559E-13
    3    8    0    2    2    1.98816644E-04   2.47460698E-13
    3    9    0    1    1   -2.26494039E-04   6.91889103E-13
    3    9    0    2    1    1.38375472E-04   5.97184866E-13
    3    9    0    1    2    1.06163395E-03  -1.49125149E-12
    3    9    0    2    2   -2.26494040E-04  -6.78901967E-13
    3   10    0    1    1    1.22025440E-04   3.00304457E-13
    3   10    0    2    1   -5.21999664E-04   1.25109209E-12
    3   10    0    1    2   -8.16722609E-04   1.48356783E-13
    3   10    0    2    2    1.22025438E-04  -2.98112643E-13
    3   11    0    1    1    4.86680812E-04   1.55945782E-15
    3   11    0    2    1   -6.04736514E-05   1.74688472E-12
    3   11    0    1    2   -8.16817642E-04   3.14577938E-13
    3   11    0    2    2    4.86680815E-04   2.02619831E-15
    4   -7    0    1    1    3.65702770E-04  -4.57070755E-13
    4   -7    0    2    1   -2.00655412E-04   6.10251124E-13
    4   -7    0    1    2    2.27356130E-04  -1.20967009E-12
    4   -7    0    2    2    3.65702770E-04   4.65225262E-13
    4   -6    0    1    1   -3.83191916E-04   1.59308798E-12
    4   -6    0    2    1   -4.74160116E-05   6.29025327E-13
    4   -6    0    1    2    4.39981155E-04  -1.12740591E-12
    4   -6    0    2    2   -3.83191919E-04  -1.59878949E-12
    4   -5    0    1    1    2.97440425E-04   5.34298119E-13
    4   -5    0    2    1    3.63759358E-04   1.59585536E-13
    4   -5    0    1    2   -1.99793819E-03   8.13618861E-13
    4   -5    0    2    2    2.97440424E-04  -5.24327542E-13
    4   -4    0    1    1    1.34955403E-03   5.42544541E-13
    4   -4    0    2    1    2.80220599E-04   1.06454729E-14
    4   -4    0    1    2   -1.36002931E-03  -7.20989846E-13
    4   -4    0    2    2    1.34955403E-03  -5.55494112E-13
    4   -3    0    1    1    5.57232793E-04   1.08659767E-12
    4   -3    0    2    1   -2.09176248E-04   2.17617779E-13
    4   -3    0    1    2    1.28628603E-03  -2.13267420E-13
    4   -3    0    2    2    5.57232791E-04  -1.08683426E-12
    4   -2    0    1    1   -3.23857907E-04  -5.08513386E-14
    4   -2    0    2    1    3.66302320E-04   1.20886357E-12
    4   -2    0    1    2    4.20802600E-04  -2.15616111E-14
    4   -2    0    2    2   -3.23857905E-04   5.53703550E-14
    4   -1    0    1    1    6.16210772E-04  -3.28244425E-13
    4   -1    0    2    1    6.17541420E-04   7.94362171E-13
    4   -1    0    1    2   -9.38517928E-04   2.19444929E-13
    4   -1    0    2    2    6.16210770E-04   3.38746586E-13
    4    0    0    1    1    1.38296648E-03   1.29044439E-12
    4    0    0    2    1   -1.16036789E-03   7.01571564E-13
    4    0    0    1    2   -4.33499303E-05  -7.04039899E-13
    4    0    0    2    2    1.38296648E-03  -1.29848080E-12
    4    1    0    1    1   -6.73925275E-04  -3.81403452E-13
    4    1    0    2    1   -9.36823932E-04  -3.78129854E-14
    4    1    0    1    2   -5.53074175E-04   1.23811292E-12
    4    1    0    2    2   -6.73925273E-04   3.75860405E-13
    4    2    0    1    1    1.53283375E-03  -7.14517087E-13
    4    2    0    2    1   -2.37449072E-04  -1.78411773E-12
    4    2    0    1    2   -5.52702569E-04  -3.10652939E-13
    4    2    0    2    2    1.53283375E-03   7.18169571E-13
    4    3    0    1    1   -6.73927982E-04  -1.08656492E-13
    4    3    0    2    1   -2.37690484E-04  -8.68546479E-13
    4    3    0    1    2   -4.21963656E-05   4.55600129E-13
    4    3    0    2    2   -6.73927981E-04   1.09687406E-13
    4    4    0    1    1    1.38296175E-03   3.43402373E-13
    4    4    0    2    1   -9.37392178E-04  -1.36233812E-12
    4    4    0    1    2   -9.37392176E-04   4.31260320E-13
    4    4    0    2    2    1.38296175E-03  -3.37281092E-13
    4    5    0    1    1    6.16205110E-04   7.47569750E-13
    4    5    0    2    1   -1.16073662E-03  -3.56570090E-13
    4    5    0    1    2    4.20908324E-04   1.60219404E-12
    4    5    0    2    2    6.16205111E-04  -7.58257595E-13
    4    6    0    1    1   -3.23858705E-04   5.29025406E-13
    4    6    0    2    1    6.17933415E-04  -7.96233553E-13
    4    6    0    1    2    1.28540166E-03   2.28860689E-13
    4    6    0    2    2   -3.23858703E-04  -5.33094024E-13
    4    7    0    1    1    5.57233027E-04   1.62660445E-12
    4    7    0    2    1    3.67358821E-04   6.82586090E-13
    4    7    0    1    2   -1.36094765E-03  -1.88801005E-13
    4    7    0    2    2    5.57233026E-04  -1.61357940E-12
    4    8    0    1    1    1.34955445E-03   9.29117872E-14
    4    8    0    2    1   -2.08414452E-04  -4.47983531E-14
    4    8    0    1    2   -1.99806070E-03  -5.49285393E-13
    4    8    0    2    2    1.34955445E-03  -1.02769412E-13
    4    9    0    1    1    2.97440496E-04   1.11459984E-12
    4    9    0    2    1    2.80139295E-04   4.89078085E-13
    4    9    0    1    2    4.40412379E-04  -5.40415759E-13
    4    9    0    2    2    2.97440496E-04  -1.10156659E-12
    4   10    0    1    1   -3.83192219E-04   4.60366350E-13
    4   10    0    2    1    3.63195404E-04  -1.39478394E-14
    4   10    0    1    2    2.27667682E-04  -1.40213524E-12
    4   10    0    2    2   -3.83192220E-04  -4.69811821E-13
    4   11    0    1    1    3.65702568E-04  -2.55693886E-12
    4   11    0    2    1   -4.78525393E-05   1.46605502E-12
    4   11    0    1    2   -1.18859554E-03  -1.38330411E-12
    4   11    0    2    2    3.65702568E-04   2.55226333E-12
    5   -7    0    1    1    3.50391764E-04  -9.59597494E-13
    5   -7    0    2    1   -1.65091632E-04   6.22270728E-13
    5   -7    0    1    2   -2.10475677E-04   3.68380739E-14
    5   -7    0    2    2    3.50391764E-04   9.57758486E-13
    5   -6    0    1    1   -3.55541661E-04   8.55509577E-13
    5   -6    0    2    1   -1.64715466E-04   1.23012028E-12
    5   -6    0    1    2    1.04285098E-03  -2.94912814E-14
    5   -6    0    2    2   -3.55541659E-04  -8.47866573E-13
    5   -5    0    1    1   -6.83465752E-04   8.95626974E-13
    5   -5    0    2    1    3.51489645E-04  -1.17647005E-12
    5   -5    0    1    2   -4.77914075E-04   4.78414329E-13
    5   -5    0    2    2   -6.83465752E-04  -8.95222762E-13
    5   -4    0    1    1    2.97440423E-04  -6.70774782E-13
    5   -4    0    2    1    3.63759357E-04  -4.57921238E-13
    5   -4    0    1    2   -1.99793819E-03  -4.87925484E-13
    5   -4    0    2    2    2.97440426E-04   6.67224817E-13
    5   -3    0    1    1    1.98816813E-04   4.64237116E-13
    5   -3    0    2    1    1.38534176E-04   4.94650075E-13
    5   -3    0    1    2   -4.71591797E-04  -6.11051929E-13
    5   -3    0    2    2    1.98816811E-04  -4.69587049E-13
    5   -2    0    1    1   -9.64584541E-04   6.73678346E-13
    5   -2    0    2    1    1.20547628E-03   7.72445070E-13
    5   -2    0    1    2    8.20578208E-05  -1.64154671E-12
    5   -2    0    2    2   -9.64584540E-04  -6.81997073E-13
    5   -1    0    1    1   -4.76254733E-04  -1.16424373E-12
    5   -1    0    2    1    2.25665916E-03   1.52838083E-13
    5   -1    0    1    2   -1.35321173E-03  -2.23021601E-13
    5   -1    0    2    2   -4.76254734E-04   1.16584794E-12
    5    0    0    1    1    9.48870406E-04  -4.45175155E-13
    5    0    0    2    1    5.57222493E-04  -1.00824116E-12
    5    0    0    1    2   -1.16123962E-03  -1.30461051E-12
    5    0    0    2    2    9.48870407E-04   4.50479079E-13
    5    1    0    1    1    6.16210791E-04   2.92362934E-13
    5    1    0    2    1   -1.35323603E-03   1.05930649E-12
    5    1    0    1    2    1.01549482E-04   1.95666384E-12
    5    1    0    2    2    6.16210793E-04  -2.91207068E-13
    5    2    0    1    1    6.00473884E-05   1.67375583E-12
    5    2    0    2    1    4.21078930E-04  -1.38216492E-12
    5    2    0    1    2   -1.18658786E-03   1.37565984E-12
    5    2    0    2    2    6.00473893E-05  -1.67047249E-12
    5    3    0    1    1    6.00464817E-05  -1.03712797E-12
    5    3    0    2    1    1.76993586E-03  -1.34886463E-13
    5    3    0    1    2    1.01907336E-04   1.68750490E-12
    5    3    0    2    2    6.00464787E-05   1.03179704E-12
    5    4    0    1    1    6.16205112E-04  -1.87084851E-12
    5    4    0    2    1    4.20908326E-04  -8.48792843E-13
    5    4    0    1    2   -1.16073662E-03   5.39440267E-13
    5    4    0    2    2    6.16205110E-04   1.88799835E-12
    5    5    0    1    1    9.48868317E-04  -1.12381650E-13
    5    5    0    2    1   -1.35332792E-03  -8.78190634E-13
    5    5    0    1    2   -1.35332791E-03  -3.12155741E-13
    5    5    0    2    2    9.48868316E-04   1.06012626E-13
    5    6    0    1    1   -4.76252719E-04  -3.57528318E-13
    5    6    0    2    1    5.57613087E-04  -6.85268053E-13
    5    6    0    1    2    8.11373473E-05  -1.31056264E-12
    5    6    0    2    2   -4.76252717E-04   3.48776699E-13
    5    7    0    1    1   -9.64583767E-04  -1.09967477E-13
    5    7    0    2    1    2.25761424E-03   2.24220100E-12
    5    7    0    1    2   -4.72580754E-04  -1.04130815E-12
    5    7    0    2    2   -9.64583767E-04   1.06520237E-13
    5    8    0    1    1    1.98817162E-04   8.20918480E-13
    5    8    0    2    1    1.20625174E-03   1.47933194E-12
    5    8    0    1    2   -1.99818077E-03  -2.54763182E-13
    5    8    0    2    2    1.98817163E-04  -8.30881916E-13
    5    9    0    1    1    2.97440736E-04  -3.96416439E-13
    5    9    0    2    1    1.38579986E-04   3.42352058E-13
    5    9    0    1    2   -4.77413478E-04  -9.84026043E-14
    5    9    0    2    2    2.97440738E-04   4.14516185E-13
    5   10    0    1    1   -6.83465393E-04  -3.71453180E-14
    5   10    0    2    1    3.63158631E-04   7.81040570E-13
    5   10    0    1    2    1.04349375E-03  -7.91378624E-13
    5   10    0    2    2   -6.83465396E-04   2.27047421E-14
    5   11    0    1    1   -3.55541459E-04  -5.95849564E-13
    5   11    0    2    1    3.50704565E-04   7.48985205E-13
    5   11    0    1    2   -2.10203504E-04  -1.23421713E-12
    5   11    0    2    2   -3.55541462E-04   6.07301507E-13
    5   12    0    1    1    3.50391764E-04  -9.59615545E-13
    5   12    0    2    1   -1.65091139E-04   6.22751000E-13
    5   12    0    1    2   -2.10476319E-04   3.63538766E-14
    5   12    0    2    2    3.50391764E-04   9.57741663E-13
    6   -6    0    1    1    3.11834473E-04   6.42902151E-13
    6   -6    0    2    1   -3.78925222E-04   1.16338364E-12
    6   -6    0    1    2    3.99161808E-04  -6.49433121E-13
    6   -6    0    2    2    3.11834476E-04  -6.30565190E-13
    6   -5    0    1    1   -3.55541659E-04  -4.75074139E-13
    6   -5    0    2    1   -1.64715468E-04   1.82401678E-13
    6   -5    0    1    2    1.04285098E-03   1.26147314E-12
    6   -5    0    2    2   -3.55541661E-04   4.77476323E-13
    6   -4    0    1    1   -3.83191918E-04  -1.20582525E-12
    6   -4    0    2    1   -4.74160091E-05  -8.29616892E-13
    6   -4    0    1    2    4.39981156E-04  -2.51140058E-13
    6   -4    0    2    2   -3.83191916E-04   1.20357164E-12
    6   -3    0    1    1   -2.26493573E-04  -1.39163910E-13
    6   -3    0    2    1   -5.21618299E-04  -5.91395913E-14
    6   -3    0    1    2    4.89155827E-04  -2.61067771E-13
    6   -3    0    2    2   -2.26493570E-04   1.49868433E-13
    6   -2    0    1    1   -5.90228439E-04   3.00058111E-12
    6   -2    0    2    1   -7.06800929E-04  -1.30425243E-12
    6   -2    0    1    2    4.16116029E-04  -2.19827494E-13
    6   -2    0    2    2   -5.90228438E-04  -3.00452801E-12
    6   -1    0    1    1   -6.63757870E-04  -3.38909896E-13
    6   -1    0    2    1    9.05750440E-05   4.57699981E-13
    6   -1    0    1    2   -1.88106734E-04   1.93666604E-12
    6   -1    0    2    2   -6.63757870E-04   3.45354798E-13
    6    0    0    1    1   -4.28434312E-04  -4.15518957E-13
    6    0    0    2    1    4.83252290E-04  -2.37454363E-12
    6    0    0    1    2    5.57814131E-04   5.90502545E-13
    6    0    0    2    2   -4.28434315E-04   4.01789838E-13
    6    1    0    1    1   -4.76254902E-04  -3.60299459E-13
    6    1    0    2    1   -1.88961445E-04  -9.97959610E-13
    6    1    0    1    2    6.17776595E-04  -5.58136200E-14
    6    1    0    2    2   -4.76254902E-04   3.50845684E-13
    6    2    0    1    1   -3.23857957E-04   1.16425146E-12
    6    2    0    2    1    8.12854433E-05  -1.05454294E-12
    6    2    0    1    2   -1.66933185E-03  -3.98120632E-14
    6    2    0    2    2   -3.23857953E-04  -1.15963897E-12
    6    3    0    1    1    2.02378822E-04  -9.46636122E-13
    6    3    0    2    1    1.28547661E-03   1.03064069E-12
    6    3    0    1    2   -1.66925270E-03  -1.02400227E-12
    6    3    0    2    2    2.02378824E-04   9.46723283E-13
    6    4    0    1    1   -3.23858703E-04  -1.27471412E-12
    6    4    0    2    1    1.28540166E-03   1.00059722E-12
    6    4    0    1    2    6.17933415E-04   9.05632650E-13
    6    4    0    2    2   -3.23858705E-04   1.27856037E-12
    6    5    0    1    1   -4.76252718E-04  -5.79840791E-13
    6    5    0    2    1    8.11373476E-05  -3.97867365E-13
    6    5    0    1    2    5.57613092E-04   1.83657095E-12
    6    5    0    2    2   -4.76252718E-04   5.79246082E-13
    6    6    0    1    1   -4.28428797E-04  -6.38285402E-13
    6    6    0    2    1   -1.88906297E-04  -1.19937421E-12
    6    6    0    1    2   -1.88906295E-04   6.91274004E-13
    6    6    0    2    2   -4.28428794E-04   6.47685995E-13
    6    7    0    1    1   -6.63751184E-04  -1.59795364E-12
    6    7    0    2    1    4.83701079E-04  -2.43796590E-13
    6    7    0    1    2    4.15264024E-04  -2.13578887E-12
    6    7    0    2    2   -6.63751181E-04   1.59958142E-12
    6    8    0    1    1   -5.90227927E-04  -8.59359757E-13
    6    8    0    2    1    9.11253314E-05   6.03113781E-13
    6    8    0    1    2    4.88823800E-04  -3.11611107E-13
    6    8    0    2    2   -5.90227928E-04   8.59837404E-13
    6    9    0    1    1   -2.26494083E-04   2.67575535E-13
    6    9    0    2    1   -7.06647293E-04   6.74099629E-13
    6    9    0    1    2    4.40336607E-04  -1.26127635E-12
    6    9    0    2    2   -2.26494080E-04  -2.72890139E-13
    6   10    0    1    1   -3.83191981E-04  -3.60682800E-13
    6   10    0    2    1   -5.21896624E-04   1.75291766E-12
    6   10    0    1    2    1.04364337E-03  -7.19339881E-13
    6   10    0    2    2   -3.83191984E-04   3.51133997E-13
    6   11    0    1    1   -3.55541371E-04   1.06196773E-12
    6   11    0    2    1   -4.81265594E-05   1.11377200E-12
    6   11    0    1    2    3.99865299E-04  -5.57991064E-13
    6   11    0    2    2   -3.55541372E-04  -1.05961200E-12
    6   12    0    1    1    3.11834622E-04  -9.11178746E-13
    6   12    0    2    1   -1.65462616E-04   6.01545880E-13
    6   12    0    1    2   -5.13906835E-04  -1.30993626E-12
    6   12    0    2    2    3.11834625E-04   9.01021666E-13
    7   -5    0    1    1    3.50391766E-04  -7.24158527E-13
    7   -5    0    2    1   -1.65091635E-04  -1.34989062E-13
    7   -5    0    1    2   -2.10475677E-04   1.28198534E-12
    7   -5    0    2    2    3.50391762E-04   7.06682559E-13
    7   -4    0    1    1    3.65702772E-04  -1.09687674E-12
    7   -4    0    2    1   -2.00655413E-04  -6.83837768E-13
    7   -4    0    1    2    2.27356127E-04   2.47497428E-14
    7   -4    0    2    2    3.65702769E-04   1.10237951E-12
    7   -3    0    1    1    1.22025828E-04  -6.04909740E-14
    7   -3    0    2    1   -6.03346466E-05   4.46346980E-13
    7   -3    0    1    2    1.06133321E-03   1.57430258E-12
    7   -3    0    2    2    1.22025831E-04   6.60577223E-14
    7   -2    0    1    1    6.00353627E-05   2.82507318E-12
    7   -2    0    2    1   -3.61179707E-04  -2.06766494E-12
    7   -2    0    1    2    9.05680849E-04   5.20437834E-13
    7   -2    0    2    2    6.00353642E-05  -2.82502637E-12
    7   -1    0    1    1    7.11290790E-04   4.47147706E-13
    7   -1    0    2    1   -1.31596389E-03  -1.27529781E-12
    7   -1    0    1    2   -3.68938643E-04  -4.46663532E-14
    7   -1    0    2    2    7.11290787E-04  -4.48353755E-13
    7    0    0    1    1    7.21331743E-04   6.95897223E-13
    7    0    0    2    1   -1.53650911E-03   6.43753079E-13
    7    0    0    1    2    4.84052763E-04   1.67224230E-12
    7    0    0    2    2    7.21331739E-04  -6.90071130E-13
    7    1    0    1    1   -6.63757875E-04  -4.44672372E-13
    7    1    0    2    1   -3.69428512E-04   1.63755181E-13
    7    1    0    1    2    2.25748253E-03   6.42645759E-13
    7    1    0    2    2   -6.63757879E-04   4.39429706E-13
    7    2    0    1    1   -9.64584786E-04  -3.28590495E-13
    7    2    0    2    1    4.15544069E-04  -1.21602431E-12
    7    2    0    1    2    3.67175891E-04   1.36043003E-12
    7    2    0    2    2   -9.64584785E-04   3.35687285E-13
    7    3    0    1    1    5.57232897E-04  -9.69009592E-13
    7    3    0    2    1   -4.72337044E-04  -1.24172425E-12
    7    3    0    1    2   -1.95397134E-03  -8.92052130E-13
    7    3    0    2    2    5.57232898E-04   9.61517121E-13
    7    4    0    1    1    5.57233028E-04   4.47060149E-13
    7    4    0    2    1   -1.36094765E-03  -2.77627537E-13
    7    4    0    1    2    3.67358820E-04   5.20877419E-13
    7    4    0    2    2    5.57233026E-04  -4.47889512E-13
    7    5    0    1    1   -9.64583766E-04   1.34204801E-12
    7    5    0    2    1   -4.72580754E-04  -9.49643855E-13
    7    5    0    1    2    2.25761424E-03  -2.84617245E-13
    7    5    0    2    2   -9.64583768E-04  -1.34615585E-12
    7    6    0    1    1   -6.63751182E-04  -9.69953680E-13
    7    6    0    2    1    4.15264026E-04   1.18017996E-12
    7    6    0    1    2    4.83701079E-04  -4.97424636E-13
    7    6    0    2    2   -6.63751183E-04   9.69428062E-13
    7    7    0    1    1    7.21334940E-04   1.08479822E-12
    7    7    0    2    1   -3.69450955E-04   1.50493926E-12
    7    7    0    1    2   -3.69450953E-04  -1.05046445E-12
    7    7    0    2    2    7.21334939E-04  -1.08316545E-12
    7    8    0    1    1    7.11289285E-04   7.62988418E-13
    7    8    0    2    1   -1.53627750E-03   1.50373261E-13
    7    8    0    1    2    9.05422135E-04  -1.38214076E-13
    7    8    0    2    2    7.11289286E-04  -7.52682399E-13
    7    9    0    1    1    6.00340429E-05   1.52495935E-12
    7    9    0    2    1   -1.31588894E-03  -9.31810749E-13
    7    9    0    1    2    1.06137662E-03  -1.31172905E-12
    7    9    0    2    2    6.00340422E-05  -1.53176181E-12
    7   10    0    1    1    1.22025116E-04  -3.13077012E-13
    7   10    0    2    1   -3.61166308E-04   1.00253294E-12
    7   10    0    1    2    2.27761938E-04  -1.63927792E-12
    7   10    0    2    2    1.22025115E-04   3.11290472E-13
    7   11    0    1    1    3.65702624E-04   1.64996369E-12
    7   11    0    2    1   -6.04990849E-05   1.11691437E-12
    7   11    0    1    2   -2.09721067E-04  -1.15604878E-12
    7   11    0    2    2    3.65702622E-04  -1.64077582E-12
    7   12    0    1    1    3.50391635E-04   6.33264449E-13
    7   12    0    2    1   -2.01204357E-04   9.96166837E-13
    7   12    0    1    2   -5.13468772E-04  -3.46386117E-13
    7   12    0    2    2    3.50391637E-04  -6.40785703E-13
    8   -3    0    1    1    4.86680811E-04   2.19513369E-14
    8   -3    0    2    1   -6.04730911E-05   7.76889978E-13
    8   -3    0    1    2   -8.16818401E-04   1.56051031E-13
    8   -3    0    2    2    4.86680816E-04  -1.78517430E-14
    8   -2    0    1    1   -1.74734789E-04  -5.80696155E-13
    8   -2    0    2    1    1.02461102E-03  -4.77235349E-13
    8   -2    0    1    2    2.29208979E-04   2.70554643E-12
    8   -2    0    2    2   -1.74734789E-04   5.87877979E-13
    8   -1    0    1    1    1.11498108E-04  -8.63436541E-13
    8   -1    0    2    1    1.17718436E-03  -1.63411130E-12
    8   -1    0    1    2   -5.69093483E-04  -1.10325214E-13
    8   -1    0    2    2    1.11498108E-04   8.67189808E-13
    8    0    0    1    1    1.22204867E-03   9.63958952E-14
    8    0    0    2    1   -2.97362888E-04  -5.79651656E-13
    8    0    0    1    2   -1.53622853E-03  -5.95721870E-14
    8    0    0    2    2    1.22204867E-03  -1.03646497E-13
    8    1    0    1    1    7.11291285E-04   5.76563266E-13
    8    1    0    2    1   -5.69155398E-04  -1.01797281E-12
    8    1    0    1    2    9.09017910E-05  -1.63617716E-13
    8    1    0    2    2    7.11291286E-04  -5.82595248E-13
    8    2    0    1    1   -5.90228549E-04  -9.57541542E-13
    8    2    0    2    1    9.05720765E-04   3.51026635E-13
    8    2    0    1    2    1.20590560E-03   1.55110679E-12
    8    2    0    2    2   -5.90228547E-04   9.63025148E-13
    8    3    0    1    1    1.98816643E-04   6.12932697E-13
    8    3    0    2    1    4.89175331E-04  -4.36806700E-14
    8    3    0    1    2   -2.08554926E-04  -2.69211838E-13
    8    3    0    2    2    1.98816642E-04  -6.11441971E-13
    8    4    0    1    1    1.34955445E-03   1.08056336E-13
    8    4    0    2    1   -1.99806070E-03   6.69602805E-13
    8    4    0    1    2   -2.08414451E-04   5.45195825E-13
    8    4    0    2    2    1.34955445E-03  -1.11748379E-13
    8    5    0    1    1    1.98817162E-04   9.21127640E-13
    8    5    0    2    1   -1.99818077E-03   1.36840632E-12
    8    5    0    1    2    1.20625174E-03  -1.45264546E-13
    8    5    0    2    2    1.98817163E-04  -9.25579327E-13
    8    6    0    1    1   -5.90227929E-04  -2.76583843E-12
    8    6    0    2    1    4.88823801E-04   1.15375201E-13
    8    6    0    1    2    9.11253324E-05  -7.79050599E-13
    8    6    0    2    2   -5.90227926E-04   2.76921680E-12
    8    7    0    1    1    7.11289286E-04  -4.58932269E-13
    8    7    0    2    1    9.05422132E-04  -2.75278081E-13
    8    7    0    1    2   -1.53627749E-03   2.64733360E-13
    8    7    0    2    2    7.11289285E-04   4.62480997E-13
    8    8    0    1    1    1.22204287E-03   1.31064879E-12
    8    8    0    2    1   -5.69103340E-04  -1.83353205E-12
    8    8    0    1    2   -5.69103335E-04   1.56502550E-12
    8    8    0    2    2    1.22204286E-03  -1.30587417E-12
    8    9    0    1    1    1.11490509E-04  -9.20226896E-14
    8    9    0    2    1   -2.97240410E-04  -7.88943041E-13
    8    9    0    1    2    2.29201220E-04   4.62204316E-13
    8    9    0    2    2    1.11490510E-04   8.81485608E-14
    8   10    0    1    1   -1.74735568E-04  -1.23987181E-12
    8   10    0    2    1    1.17714808E-03   6.72988907E-14
    8   10    0    1    2   -8.16855483E-04  -1.08853228E-12
    8   10    0    2    2   -1.74735566E-04   1.23954374E-12
    8   11    0    1    1    4.86681129E-04  -1.57160245E-12
    8   11    0    2    1    1.02471812E-03   1.23627007E-12
    8   11    0    1    2   -1.18834382E-03  -5.69609551E-13
    8   11    0    2    2    4.86681127E-04   1.56554800E-12
    9   -1    0    1    1   -1.06323175E-03  -1.03799082E-13
    9   -1    0    2    1    1.17714620E-03  -1.85219222E-12
    9   -1    0    1    2    4.42340365E-04   7.35947584E-13
    9   -1    0    2    2   -1.06323175E-03   9.59024763E-14
    9    0    0    1    1   -8.50654554E-04  -1.73734680E-13
    9    0    0    2    1    1.64478865E-03  -1.59012199E-13
    9    0    0    1    2   -2.97336566E-04   1.23072171E-12
    9    0    0    2    2   -8.50654552E-04   1.88733275E-13
    9    1    0    1    1    1.11498724E-04   8.56505216E-13
    9    1    0    2    1    4.42351962E-04  -1.33734565E-12
    9    1    0    1    2   -1.31604712E-03   6.56213368E-13
    9    1    0    2    2    1.11498724E-04  -8.48977385E-13
    9    2    0    1    1    6.00355862E-05  -2.46072690E-13
    9    2    0    2    1    2.29337414E-04  -1.20536351E-12
    9    2    0    1    2   -7.06997538E-04  -5.32885600E-13
    9    2    0    2    2    6.00355878E-05   2.47113177E-13
    9    3    0    1    1   -2.26494038E-04   2.88670247E-13
    9    3    0    2    1    1.06163395E-03   7.60773288E-13
    9    3    0    1    2    1.38375476E-04  -4.61216687E-13
    9    3    0    2    2   -2.26494041E-04  -2.97936778E-13
    9    4    0    1    1    2.97440497E-04   7.15640691E-14
    9    4    0    2    1    4.40412378E-04   3.08725210E-13
    9    4    0    1    2    2.80139296E-04  -1.59474406E-12
    9    4    0    2    2    2.97440496E-04  -6.57445012E-14
    9    5    0    1    1    2.97440736E-04   8.65631583E-13
    9    5    0    2    1   -4.77413479E-04   3.89546966E-13
    9    5    0    1    2    1.38579985E-04  -1.00766693E-12
    9    5    0    2    2    2.97440738E-04  -8.75225905E-13
    9    6    0    1    1   -2.26494082E-04  -4.84949623E-13
    9    6    0    2    1    4.40336607E-04   8.41534420E-13
    9    6    0    1    2   -7.06647293E-04  -1.58866957E-13
    9    6    0    2    2   -2.26494080E-04   4.89374228E-13
    9    7    0    1    1    6.00340434E-05  -2.66596034E-12
    9    7    0    2    1    1.06137662E-03   4.81193114E-13
    9    7    0    1    2   -1.31588893E-03   9.27461669E-13
    9    7    0    2    2    6.00340417E-05   2.65705430E-12
    9    8    0    1    1    1.11490509E-04   4.26136541E-13
    9    8    0    2    1    2.29201218E-04   6.28475229E-13
    9    8    0    1    2   -2.97240410E-04   5.51584425E-13
    9    8    0    2    2    1.11490510E-04  -4.30226564E-13
    9    9    0    1    1   -8.50658478E-04   7.25457910E-13
    9    9    0    2    1    4.42459311E-04   1.02167067E-12
    9    9    0    1    2    4.42459310E-04  -6.28380290E-13
    9    9    0    2    2   -8.50658478E-04  -7.19372827E-13
    9   10    0    1    1   -1.06323054E-03  -4.21952182E-13
    9   10    0    2    1    1.64473993E-03   2.35539566E-12
    9   10    0    1    2   -4.67707667E-04  -1.47948616E-12
    9   10    0    2    2   -1.06323054E-03   4.26377610E-13
   10    1    0    1    1   -1.06323175E-03   1.03314188E-13
   10    1    0    2    1    4.42470621E-04  -7.33047798E-13
   10    1    0    1    2    1.17713596E-03   1.85252875E-12
   10    1    0    2    2   -1.06323175E-03  -9.63889046E-14
   10    2    0    1    1   -1.74734607E-04   1.17313357E-12
   10    2    0    2    1   -4.67677340E-04  -1.38482427E-12
   10    2    0    1    2   -3.61379503E-04  -6.53109335E-14
   10    2    0    2    2   -1.74734608E-04  -1.16926195E-12
   10    3    0    1    1    1.22025438E-04  -1.41191567E-13
   10    3    0    2    1   -8.16722609E-04   2.64964266E-13
   10    3    0    1    2   -5.21999663E-04  -4.00238492E-13
   10    3    0    2    2    1.22025440E-04   1.47040044E-13
   10    4    0    1    1   -3.83192219E-04   2.18449676E-13
   10    4    0    2    1    2.27667682E-04   3.37135084E-13
   10    4    0    1    2    3.63195404E-04   6.86019940E-13
   10    4    0    2    2   -3.83192220E-04  -2.20183249E-13
   10    5    0    1    1   -6.83465395E-04  -1.43336856E-12
   10    5    0    2    1    1.04349375E-03  -5.77451760E-13
   10    5    0    1    2    3.63158631E-04   2.84888517E-14
   10    5    0    2    2   -6.83465394E-04   1.43093254E-12
   10    6    0    1    1   -3.83191984E-04   1.27068629E-12
   10    6    0    2    1    1.04364337E-03  -2.01678769E-12
   10    6    0    1    2   -5.21896623E-04  -2.66988310E-13
   10    6    0    2    2   -3.83191981E-04  -1.25666208E-12
   10    7    0    1    1    1.22025118E-04   5.69798478E-13
   10    7    0    2    1    2.27761938E-04   2.48896272E-13
   10    7    0    1    2   -3.61166305E-04  -1.33436572E-12
   10    7    0    2    2    1.22025114E-04  -5.71949762E-13
   10    8    0    1    1   -1.74735566E-04  -8.64770971E-14
   10    8    0    2    1   -8.16855485E-04   1.14341470E-12
   10    8    0    1    2    1.17714808E-03  -9.87821525E-13
   10    8    0    2    2   -1.74735568E-04   7.70236707E-14
   10    9    0    1    1   -1.06323054E-03   4.21504936E-13
   10    9    0    2    1   -4.67707667E-04   1.47759066E-12
   10    9    0    1    2    1.64473993E-03  -2.35200789E-12
   10    9    0    2    2   -1.06323054E-03  -4.26824637E-13
   11    3    0    1    1    4.86680811E-04  -2.19864965E-14
   11    3    0    2    1   -8.16817640E-04  -1.55937109E-13
   11    3    0    1    2   -6.04736507E-05  -7.76750556E-13
   11    3    0    2    2    4.86680816E-04   1.78085876E-14
   11    4    0    1    1    3.65702567E-04   7.55910054E-13
   11    4    0    2    1   -1.18859554E-03   4.55874488E-13
   11    4    0    1    2   -4.78525410E-05  -5.13864175E-13
   11    4    0    2    2    3.65702569E-04  -7.48678830E-13
   11    5    0    1    1   -3.55541458E-04   5.75250587E-13
   11    5    0    2    1   -2.10203502E-04   5.06403157E-14
   11    5    0    1    2    3.50704566E-04   1.56832823E-12
   11    5    0    2    2   -3.55541463E-04  -5.74989447E-13
   11    6    0    1    1   -3.55541371E-04  -1.24157929E-12
   11    6    0    2    1    3.99865299E-04  -7.58756170E-13
   11    6    0    1    2   -4.81265586E-05   1.11136322E-12
   11    6    0    2    2   -3.55541371E-04   1.23944153E-12
   11    7    0    1    1    3.65702623E-04  -4.80430665E-13
   11    7    0    2    1   -2.09721068E-04  -4.49289409E-13
   11    7    0    1    2   -6.04990845E-05  -4.40122069E-13
   11    7    0    2    2    3.65702623E-04   4.77617664E-13
   11    8    0    1    1    4.86681129E-04   1.57131284E-12
   11    8    0    2    1   -1.18834382E-03   5.71251780E-13
   11    8    0    1    2    1.02471812E-03  -1.23711793E-12
   11    8    0    2    2    4.86681127E-04  -1.56583517E-12
   12    5    0    1    1    3.50391766E-04   7.24206512E-13
   12    5    0    2    1   -2.10476319E-04  -1.28238887E-12
   12    5    0    1    2   -1.65091142E-04   1.34742010E-13
   12    5    0    2    2    3.50391762E-04  -7.06629656E-13
   12    6    0    1    1    3.11834623E-04   1.03507512E-12
   12    6    0    2    1   -5.13906832E-04   6.55150426E-13
   12    6    0    1    2   -1.65462615E-04   6.24465749E-13
   12    6    0    2    2    3.11834624E-04  -1.04207683E-12
   12    7    0    1    1    3.50391635E-04  -6.33403654E-13
   12    7    0    2    1   -5.13468772E-04   3.46156689E-13
   12    7    0    1    2   -2.01204357E-04  -9.93768203E-13
   12    7    0    2    2    3.50391637E-04   6.40646487E-13

