File written on 20Jul2023 at 19:38:02 

calc_only_A  :  F

begin real_lattice
   7.9376600   0.0000000   0.0000000
   0.0000000   7.9376600   0.0000000
   0.0000000   0.0000000   7.9376600
end real_lattice

begin recip_lattice
   0.7915664   0.0000000   0.0000000
   0.0000000   0.7915664   0.0000000
   0.0000000   0.0000000   0.7915664
end recip_lattice

begin kpoints
     1
    0.00000000    0.00000000    0.00000000
end kpoints

begin projections
     8
   0.00000    0.00000    0.00000     0  1  2
    0.0000000  0.0000000  1.0000000   1.0000000  0.0000000  0.0000000    1.00
   0.00000    0.00000    0.00000     1  1  2
    0.0000000  0.0000000  1.0000000   1.0000000  0.0000000  0.0000000    1.00
   0.00000    0.00000    0.00000     1  2  2
    0.0000000  0.0000000  1.0000000   1.0000000  0.0000000  0.0000000    1.00
   0.00000    0.00000    0.00000     1  3  2
    0.0000000  0.0000000  1.0000000   1.0000000  0.0000000  0.0000000    1.00
   0.07988    0.07988    0.07988     0  1  1
    0.0000000  0.0000000  1.0000000   1.0000000  0.0000000  0.0000000    1.00
  -0.07988   -0.07988    0.07988     0  1  1
    0.0000000  0.0000000  1.0000000   1.0000000  0.0000000  0.0000000    1.00
   0.07988   -0.07988   -0.07988     0  1  1
    0.0000000  0.0000000  1.0000000   1.0000000  0.0000000  0.0000000    1.00
  -0.07988    0.07988   -0.07988     0  1  1
    0.0000000  0.0000000  1.0000000   1.0000000  0.0000000  0.0000000    1.00
end projections

begin nnkpts
   3
     1     1      1   0   0
     1     1      0   1   0
     1     1      0   0   1
end nnkpts

begin exclude_bands
   0
end exclude_bands
