File written on  1Dec2023 at 19:02:29 

calc_only_A  :  F

begin real_lattice
   4.4580000   0.0000000   0.0000000
  -2.2290001   3.8607414   0.0000000
   0.0000000   0.0000000   5.9250000
end real_lattice

begin recip_lattice
   1.4094180   0.8137278   0.0000000
   0.0000000   1.6274556   0.0000000
   0.0000000   0.0000000   1.0604532
end recip_lattice

begin kpoints
  3072
    0.00000000    0.00000000    0.00000000
    0.00000000    0.00000000    0.08333333
    0.00000000    0.00000000    0.16666667
    0.00000000    0.00000000    0.25000000
    0.00000000    0.00000000    0.33333333
    0.00000000    0.00000000    0.41666667
    0.00000000    0.00000000    0.50000000
    0.00000000    0.00000000    0.58333333
    0.00000000    0.00000000    0.66666667
    0.00000000    0.00000000    0.75000000
    0.00000000    0.00000000    0.83333333
    0.00000000    0.00000000    0.91666667
    0.00000000    0.06250000    0.00000000
    0.00000000    0.06250000    0.08333333
    0.00000000    0.06250000    0.16666667
    0.00000000    0.06250000    0.25000000
    0.00000000    0.06250000    0.33333333
    0.00000000    0.06250000    0.41666667
    0.00000000    0.06250000    0.50000000
    0.00000000    0.06250000    0.58333333
    0.00000000    0.06250000    0.66666667
    0.00000000    0.06250000    0.75000000
    0.00000000    0.06250000    0.83333333
    0.00000000    0.06250000    0.91666667
    0.00000000    0.12500000    0.00000000
    0.00000000    0.12500000    0.08333333
    0.00000000    0.12500000    0.16666667
    0.00000000    0.12500000    0.25000000
    0.00000000    0.12500000    0.33333333
    0.00000000    0.12500000    0.41666667
    0.00000000    0.12500000    0.50000000
    0.00000000    0.12500000    0.58333333
    0.00000000    0.12500000    0.66666667
    0.00000000    0.12500000    0.75000000
    0.00000000    0.12500000    0.83333333
    0.00000000    0.12500000    0.91666667
    0.00000000    0.18750000    0.00000000
    0.00000000    0.18750000    0.08333333
    0.00000000    0.18750000    0.16666667
    0.00000000    0.18750000    0.25000000
    0.00000000    0.18750000    0.33333333
    0.00000000    0.18750000    0.41666667
    0.00000000    0.18750000    0.50000000
    0.00000000    0.18750000    0.58333333
    0.00000000    0.18750000    0.66666667
    0.00000000    0.18750000    0.75000000
    0.00000000    0.18750000    0.83333333
    0.00000000    0.18750000    0.91666667
    0.00000000    0.25000000    0.00000000
    0.00000000    0.25000000    0.08333333
    0.00000000    0.25000000    0.16666667
    0.00000000    0.25000000    0.25000000
    0.00000000    0.25000000    0.33333333
    0.00000000    0.25000000    0.41666667
    0.00000000    0.25000000    0.50000000
    0.00000000    0.25000000    0.58333333
    0.00000000    0.25000000    0.66666667
    0.00000000    0.25000000    0.75000000
    0.00000000    0.25000000    0.83333333
    0.00000000    0.25000000    0.91666667
    0.00000000    0.31250000    0.00000000
    0.00000000    0.31250000    0.08333333
    0.00000000    0.31250000    0.16666667
    0.00000000    0.31250000    0.25000000
    0.00000000    0.31250000    0.33333333
    0.00000000    0.31250000    0.41666667
    0.00000000    0.31250000    0.50000000
    0.00000000    0.31250000    0.58333333
    0.00000000    0.31250000    0.66666667
    0.00000000    0.31250000    0.75000000
    0.00000000    0.31250000    0.83333333
    0.00000000    0.31250000    0.91666667
    0.00000000    0.37500000    0.00000000
    0.00000000    0.37500000    0.08333333
    0.00000000    0.37500000    0.16666667
    0.00000000    0.37500000    0.25000000
    0.00000000    0.37500000    0.33333333
    0.00000000    0.37500000    0.41666667
    0.00000000    0.37500000    0.50000000
    0.00000000    0.37500000    0.58333333
    0.00000000    0.37500000    0.66666667
    0.00000000    0.37500000    0.75000000
    0.00000000    0.37500000    0.83333333
    0.00000000    0.37500000    0.91666667
    0.00000000    0.43750000    0.00000000
    0.00000000    0.43750000    0.08333333
    0.00000000    0.43750000    0.16666667
    0.00000000    0.43750000    0.25000000
    0.00000000    0.43750000    0.33333333
    0.00000000    0.43750000    0.41666667
    0.00000000    0.43750000    0.50000000
    0.00000000    0.43750000    0.58333333
    0.00000000    0.43750000    0.66666667
    0.00000000    0.43750000    0.75000000
    0.00000000    0.43750000    0.83333333
    0.00000000    0.43750000    0.91666667
    0.00000000    0.50000000    0.00000000
    0.00000000    0.50000000    0.08333333
    0.00000000    0.50000000    0.16666667
    0.00000000    0.50000000    0.25000000
    0.00000000    0.50000000    0.33333333
    0.00000000    0.50000000    0.41666667
    0.00000000    0.50000000    0.50000000
    0.00000000    0.50000000    0.58333333
    0.00000000    0.50000000    0.66666667
    0.00000000    0.50000000    0.75000000
    0.00000000    0.50000000    0.83333333
    0.00000000    0.50000000    0.91666667
    0.00000000    0.56250000    0.00000000
    0.00000000    0.56250000    0.08333333
    0.00000000    0.56250000    0.16666667
    0.00000000    0.56250000    0.25000000
    0.00000000    0.56250000    0.33333333
    0.00000000    0.56250000    0.41666667
    0.00000000    0.56250000    0.50000000
    0.00000000    0.56250000    0.58333333
    0.00000000    0.56250000    0.66666667
    0.00000000    0.56250000    0.75000000
    0.00000000    0.56250000    0.83333333
    0.00000000    0.56250000    0.91666667
    0.00000000    0.62500000    0.00000000
    0.00000000    0.62500000    0.08333333
    0.00000000    0.62500000    0.16666667
    0.00000000    0.62500000    0.25000000
    0.00000000    0.62500000    0.33333333
    0.00000000    0.62500000    0.41666667
    0.00000000    0.62500000    0.50000000
    0.00000000    0.62500000    0.58333333
    0.00000000    0.62500000    0.66666667
    0.00000000    0.62500000    0.75000000
    0.00000000    0.62500000    0.83333333
    0.00000000    0.62500000    0.91666667
    0.00000000    0.68750000    0.00000000
    0.00000000    0.68750000    0.08333333
    0.00000000    0.68750000    0.16666667
    0.00000000    0.68750000    0.25000000
    0.00000000    0.68750000    0.33333333
    0.00000000    0.68750000    0.41666667
    0.00000000    0.68750000    0.50000000
    0.00000000    0.68750000    0.58333333
    0.00000000    0.68750000    0.66666667
    0.00000000    0.68750000    0.75000000
    0.00000000    0.68750000    0.83333333
    0.00000000    0.68750000    0.91666667
    0.00000000    0.75000000    0.00000000
    0.00000000    0.75000000    0.08333333
    0.00000000    0.75000000    0.16666667
    0.00000000    0.75000000    0.25000000
    0.00000000    0.75000000    0.33333333
    0.00000000    0.75000000    0.41666667
    0.00000000    0.75000000    0.50000000
    0.00000000    0.75000000    0.58333333
    0.00000000    0.75000000    0.66666667
    0.00000000    0.75000000    0.75000000
    0.00000000    0.75000000    0.83333333
    0.00000000    0.75000000    0.91666667
    0.00000000    0.81250000    0.00000000
    0.00000000    0.81250000    0.08333333
    0.00000000    0.81250000    0.16666667
    0.00000000    0.81250000    0.25000000
    0.00000000    0.81250000    0.33333333
    0.00000000    0.81250000    0.41666667
    0.00000000    0.81250000    0.50000000
    0.00000000    0.81250000    0.58333333
    0.00000000    0.81250000    0.66666667
    0.00000000    0.81250000    0.75000000
    0.00000000    0.81250000    0.83333333
    0.00000000    0.81250000    0.91666667
    0.00000000    0.87500000    0.00000000
    0.00000000    0.87500000    0.08333333
    0.00000000    0.87500000    0.16666667
    0.00000000    0.87500000    0.25000000
    0.00000000    0.87500000    0.33333333
    0.00000000    0.87500000    0.41666667
    0.00000000    0.87500000    0.50000000
    0.00000000    0.87500000    0.58333333
    0.00000000    0.87500000    0.66666667
    0.00000000    0.87500000    0.75000000
    0.00000000    0.87500000    0.83333333
    0.00000000    0.87500000    0.91666667
    0.00000000    0.93750000    0.00000000
    0.00000000    0.93750000    0.08333333
    0.00000000    0.93750000    0.16666667
    0.00000000    0.93750000    0.25000000
    0.00000000    0.93750000    0.33333333
    0.00000000    0.93750000    0.41666667
    0.00000000    0.93750000    0.50000000
    0.00000000    0.93750000    0.58333333
    0.00000000    0.93750000    0.66666667
    0.00000000    0.93750000    0.75000000
    0.00000000    0.93750000    0.83333333
    0.00000000    0.93750000    0.91666667
    0.06250000    0.00000000    0.00000000
    0.06250000    0.00000000    0.08333333
    0.06250000    0.00000000    0.16666667
    0.06250000    0.00000000    0.25000000
    0.06250000    0.00000000    0.33333333
    0.06250000    0.00000000    0.41666667
    0.06250000    0.00000000    0.50000000
    0.06250000    0.00000000    0.58333333
    0.06250000    0.00000000    0.66666667
    0.06250000    0.00000000    0.75000000
    0.06250000    0.00000000    0.83333333
    0.06250000    0.00000000    0.91666667
    0.06250000    0.06250000    0.00000000
    0.06250000    0.06250000    0.08333333
    0.06250000    0.06250000    0.16666667
    0.06250000    0.06250000    0.25000000
    0.06250000    0.06250000    0.33333333
    0.06250000    0.06250000    0.41666667
    0.06250000    0.06250000    0.50000000
    0.06250000    0.06250000    0.58333333
    0.06250000    0.06250000    0.66666667
    0.06250000    0.06250000    0.75000000
    0.06250000    0.06250000    0.83333333
    0.06250000    0.06250000    0.91666667
    0.06250000    0.12500000    0.00000000
    0.06250000    0.12500000    0.08333333
    0.06250000    0.12500000    0.16666667
    0.06250000    0.12500000    0.25000000
    0.06250000    0.12500000    0.33333333
    0.06250000    0.12500000    0.41666667
    0.06250000    0.12500000    0.50000000
    0.06250000    0.12500000    0.58333333
    0.06250000    0.12500000    0.66666667
    0.06250000    0.12500000    0.75000000
    0.06250000    0.12500000    0.83333333
    0.06250000    0.12500000    0.91666667
    0.06250000    0.18750000    0.00000000
    0.06250000    0.18750000    0.08333333
    0.06250000    0.18750000    0.16666667
    0.06250000    0.18750000    0.25000000
    0.06250000    0.18750000    0.33333333
    0.06250000    0.18750000    0.41666667
    0.06250000    0.18750000    0.50000000
    0.06250000    0.18750000    0.58333333
    0.06250000    0.18750000    0.66666667
    0.06250000    0.18750000    0.75000000
    0.06250000    0.18750000    0.83333333
    0.06250000    0.18750000    0.91666667
    0.06250000    0.25000000    0.00000000
    0.06250000    0.25000000    0.08333333
    0.06250000    0.25000000    0.16666667
    0.06250000    0.25000000    0.25000000
    0.06250000    0.25000000    0.33333333
    0.06250000    0.25000000    0.41666667
    0.06250000    0.25000000    0.50000000
    0.06250000    0.25000000    0.58333333
    0.06250000    0.25000000    0.66666667
    0.06250000    0.25000000    0.75000000
    0.06250000    0.25000000    0.83333333
    0.06250000    0.25000000    0.91666667
    0.06250000    0.31250000    0.00000000
    0.06250000    0.31250000    0.08333333
    0.06250000    0.31250000    0.16666667
    0.06250000    0.31250000    0.25000000
    0.06250000    0.31250000    0.33333333
    0.06250000    0.31250000    0.41666667
    0.06250000    0.31250000    0.50000000
    0.06250000    0.31250000    0.58333333
    0.06250000    0.31250000    0.66666667
    0.06250000    0.31250000    0.75000000
    0.06250000    0.31250000    0.83333333
    0.06250000    0.31250000    0.91666667
    0.06250000    0.37500000    0.00000000
    0.06250000    0.37500000    0.08333333
    0.06250000    0.37500000    0.16666667
    0.06250000    0.37500000    0.25000000
    0.06250000    0.37500000    0.33333333
    0.06250000    0.37500000    0.41666667
    0.06250000    0.37500000    0.50000000
    0.06250000    0.37500000    0.58333333
    0.06250000    0.37500000    0.66666667
    0.06250000    0.37500000    0.75000000
    0.06250000    0.37500000    0.83333333
    0.06250000    0.37500000    0.91666667
    0.06250000    0.43750000    0.00000000
    0.06250000    0.43750000    0.08333333
    0.06250000    0.43750000    0.16666667
    0.06250000    0.43750000    0.25000000
    0.06250000    0.43750000    0.33333333
    0.06250000    0.43750000    0.41666667
    0.06250000    0.43750000    0.50000000
    0.06250000    0.43750000    0.58333333
    0.06250000    0.43750000    0.66666667
    0.06250000    0.43750000    0.75000000
    0.06250000    0.43750000    0.83333333
    0.06250000    0.43750000    0.91666667
    0.06250000    0.50000000    0.00000000
    0.06250000    0.50000000    0.08333333
    0.06250000    0.50000000    0.16666667
    0.06250000    0.50000000    0.25000000
    0.06250000    0.50000000    0.33333333
    0.06250000    0.50000000    0.41666667
    0.06250000    0.50000000    0.50000000
    0.06250000    0.50000000    0.58333333
    0.06250000    0.50000000    0.66666667
    0.06250000    0.50000000    0.75000000
    0.06250000    0.50000000    0.83333333
    0.06250000    0.50000000    0.91666667
    0.06250000    0.56250000    0.00000000
    0.06250000    0.56250000    0.08333333
    0.06250000    0.56250000    0.16666667
    0.06250000    0.56250000    0.25000000
    0.06250000    0.56250000    0.33333333
    0.06250000    0.56250000    0.41666667
    0.06250000    0.56250000    0.50000000
    0.06250000    0.56250000    0.58333333
    0.06250000    0.56250000    0.66666667
    0.06250000    0.56250000    0.75000000
    0.06250000    0.56250000    0.83333333
    0.06250000    0.56250000    0.91666667
    0.06250000    0.62500000    0.00000000
    0.06250000    0.62500000    0.08333333
    0.06250000    0.62500000    0.16666667
    0.06250000    0.62500000    0.25000000
    0.06250000    0.62500000    0.33333333
    0.06250000    0.62500000    0.41666667
    0.06250000    0.62500000    0.50000000
    0.06250000    0.62500000    0.58333333
    0.06250000    0.62500000    0.66666667
    0.06250000    0.62500000    0.75000000
    0.06250000    0.62500000    0.83333333
    0.06250000    0.62500000    0.91666667
    0.06250000    0.68750000    0.00000000
    0.06250000    0.68750000    0.08333333
    0.06250000    0.68750000    0.16666667
    0.06250000    0.68750000    0.25000000
    0.06250000    0.68750000    0.33333333
    0.06250000    0.68750000    0.41666667
    0.06250000    0.68750000    0.50000000
    0.06250000    0.68750000    0.58333333
    0.06250000    0.68750000    0.66666667
    0.06250000    0.68750000    0.75000000
    0.06250000    0.68750000    0.83333333
    0.06250000    0.68750000    0.91666667
    0.06250000    0.75000000    0.00000000
    0.06250000    0.75000000    0.08333333
    0.06250000    0.75000000    0.16666667
    0.06250000    0.75000000    0.25000000
    0.06250000    0.75000000    0.33333333
    0.06250000    0.75000000    0.41666667
    0.06250000    0.75000000    0.50000000
    0.06250000    0.75000000    0.58333333
    0.06250000    0.75000000    0.66666667
    0.06250000    0.75000000    0.75000000
    0.06250000    0.75000000    0.83333333
    0.06250000    0.75000000    0.91666667
    0.06250000    0.81250000    0.00000000
    0.06250000    0.81250000    0.08333333
    0.06250000    0.81250000    0.16666667
    0.06250000    0.81250000    0.25000000
    0.06250000    0.81250000    0.33333333
    0.06250000    0.81250000    0.41666667
    0.06250000    0.81250000    0.50000000
    0.06250000    0.81250000    0.58333333
    0.06250000    0.81250000    0.66666667
    0.06250000    0.81250000    0.75000000
    0.06250000    0.81250000    0.83333333
    0.06250000    0.81250000    0.91666667
    0.06250000    0.87500000    0.00000000
    0.06250000    0.87500000    0.08333333
    0.06250000    0.87500000    0.16666667
    0.06250000    0.87500000    0.25000000
    0.06250000    0.87500000    0.33333333
    0.06250000    0.87500000    0.41666667
    0.06250000    0.87500000    0.50000000
    0.06250000    0.87500000    0.58333333
    0.06250000    0.87500000    0.66666667
    0.06250000    0.87500000    0.75000000
    0.06250000    0.87500000    0.83333333
    0.06250000    0.87500000    0.91666667
    0.06250000    0.93750000    0.00000000
    0.06250000    0.93750000    0.08333333
    0.06250000    0.93750000    0.16666667
    0.06250000    0.93750000    0.25000000
    0.06250000    0.93750000    0.33333333
    0.06250000    0.93750000    0.41666667
    0.06250000    0.93750000    0.50000000
    0.06250000    0.93750000    0.58333333
    0.06250000    0.93750000    0.66666667
    0.06250000    0.93750000    0.75000000
    0.06250000    0.93750000    0.83333333
    0.06250000    0.93750000    0.91666667
    0.12500000    0.00000000    0.00000000
    0.12500000    0.00000000    0.08333333
    0.12500000    0.00000000    0.16666667
    0.12500000    0.00000000    0.25000000
    0.12500000    0.00000000    0.33333333
    0.12500000    0.00000000    0.41666667
    0.12500000    0.00000000    0.50000000
    0.12500000    0.00000000    0.58333333
    0.12500000    0.00000000    0.66666667
    0.12500000    0.00000000    0.75000000
    0.12500000    0.00000000    0.83333333
    0.12500000    0.00000000    0.91666667
    0.12500000    0.06250000    0.00000000
    0.12500000    0.06250000    0.08333333
    0.12500000    0.06250000    0.16666667
    0.12500000    0.06250000    0.25000000
    0.12500000    0.06250000    0.33333333
    0.12500000    0.06250000    0.41666667
    0.12500000    0.06250000    0.50000000
    0.12500000    0.06250000    0.58333333
    0.12500000    0.06250000    0.66666667
    0.12500000    0.06250000    0.75000000
    0.12500000    0.06250000    0.83333333
    0.12500000    0.06250000    0.91666667
    0.12500000    0.12500000    0.00000000
    0.12500000    0.12500000    0.08333333
    0.12500000    0.12500000    0.16666667
    0.12500000    0.12500000    0.25000000
    0.12500000    0.12500000    0.33333333
    0.12500000    0.12500000    0.41666667
    0.12500000    0.12500000    0.50000000
    0.12500000    0.12500000    0.58333333
    0.12500000    0.12500000    0.66666667
    0.12500000    0.12500000    0.75000000
    0.12500000    0.12500000    0.83333333
    0.12500000    0.12500000    0.91666667
    0.12500000    0.18750000    0.00000000
    0.12500000    0.18750000    0.08333333
    0.12500000    0.18750000    0.16666667
    0.12500000    0.18750000    0.25000000
    0.12500000    0.18750000    0.33333333
    0.12500000    0.18750000    0.41666667
    0.12500000    0.18750000    0.50000000
    0.12500000    0.18750000    0.58333333
    0.12500000    0.18750000    0.66666667
    0.12500000    0.18750000    0.75000000
    0.12500000    0.18750000    0.83333333
    0.12500000    0.18750000    0.91666667
    0.12500000    0.25000000    0.00000000
    0.12500000    0.25000000    0.08333333
    0.12500000    0.25000000    0.16666667
    0.12500000    0.25000000    0.25000000
    0.12500000    0.25000000    0.33333333
    0.12500000    0.25000000    0.41666667
    0.12500000    0.25000000    0.50000000
    0.12500000    0.25000000    0.58333333
    0.12500000    0.25000000    0.66666667
    0.12500000    0.25000000    0.75000000
    0.12500000    0.25000000    0.83333333
    0.12500000    0.25000000    0.91666667
    0.12500000    0.31250000    0.00000000
    0.12500000    0.31250000    0.08333333
    0.12500000    0.31250000    0.16666667
    0.12500000    0.31250000    0.25000000
    0.12500000    0.31250000    0.33333333
    0.12500000    0.31250000    0.41666667
    0.12500000    0.31250000    0.50000000
    0.12500000    0.31250000    0.58333333
    0.12500000    0.31250000    0.66666667
    0.12500000    0.31250000    0.75000000
    0.12500000    0.31250000    0.83333333
    0.12500000    0.31250000    0.91666667
    0.12500000    0.37500000    0.00000000
    0.12500000    0.37500000    0.08333333
    0.12500000    0.37500000    0.16666667
    0.12500000    0.37500000    0.25000000
    0.12500000    0.37500000    0.33333333
    0.12500000    0.37500000    0.41666667
    0.12500000    0.37500000    0.50000000
    0.12500000    0.37500000    0.58333333
    0.12500000    0.37500000    0.66666667
    0.12500000    0.37500000    0.75000000
    0.12500000    0.37500000    0.83333333
    0.12500000    0.37500000    0.91666667
    0.12500000    0.43750000    0.00000000
    0.12500000    0.43750000    0.08333333
    0.12500000    0.43750000    0.16666667
    0.12500000    0.43750000    0.25000000
    0.12500000    0.43750000    0.33333333
    0.12500000    0.43750000    0.41666667
    0.12500000    0.43750000    0.50000000
    0.12500000    0.43750000    0.58333333
    0.12500000    0.43750000    0.66666667
    0.12500000    0.43750000    0.75000000
    0.12500000    0.43750000    0.83333333
    0.12500000    0.43750000    0.91666667
    0.12500000    0.50000000    0.00000000
    0.12500000    0.50000000    0.08333333
    0.12500000    0.50000000    0.16666667
    0.12500000    0.50000000    0.25000000
    0.12500000    0.50000000    0.33333333
    0.12500000    0.50000000    0.41666667
    0.12500000    0.50000000    0.50000000
    0.12500000    0.50000000    0.58333333
    0.12500000    0.50000000    0.66666667
    0.12500000    0.50000000    0.75000000
    0.12500000    0.50000000    0.83333333
    0.12500000    0.50000000    0.91666667
    0.12500000    0.56250000    0.00000000
    0.12500000    0.56250000    0.08333333
    0.12500000    0.56250000    0.16666667
    0.12500000    0.56250000    0.25000000
    0.12500000    0.56250000    0.33333333
    0.12500000    0.56250000    0.41666667
    0.12500000    0.56250000    0.50000000
    0.12500000    0.56250000    0.58333333
    0.12500000    0.56250000    0.66666667
    0.12500000    0.56250000    0.75000000
    0.12500000    0.56250000    0.83333333
    0.12500000    0.56250000    0.91666667
    0.12500000    0.62500000    0.00000000
    0.12500000    0.62500000    0.08333333
    0.12500000    0.62500000    0.16666667
    0.12500000    0.62500000    0.25000000
    0.12500000    0.62500000    0.33333333
    0.12500000    0.62500000    0.41666667
    0.12500000    0.62500000    0.50000000
    0.12500000    0.62500000    0.58333333
    0.12500000    0.62500000    0.66666667
    0.12500000    0.62500000    0.75000000
    0.12500000    0.62500000    0.83333333
    0.12500000    0.62500000    0.91666667
    0.12500000    0.68750000    0.00000000
    0.12500000    0.68750000    0.08333333
    0.12500000    0.68750000    0.16666667
    0.12500000    0.68750000    0.25000000
    0.12500000    0.68750000    0.33333333
    0.12500000    0.68750000    0.41666667
    0.12500000    0.68750000    0.50000000
    0.12500000    0.68750000    0.58333333
    0.12500000    0.68750000    0.66666667
    0.12500000    0.68750000    0.75000000
    0.12500000    0.68750000    0.83333333
    0.12500000    0.68750000    0.91666667
    0.12500000    0.75000000    0.00000000
    0.12500000    0.75000000    0.08333333
    0.12500000    0.75000000    0.16666667
    0.12500000    0.75000000    0.25000000
    0.12500000    0.75000000    0.33333333
    0.12500000    0.75000000    0.41666667
    0.12500000    0.75000000    0.50000000
    0.12500000    0.75000000    0.58333333
    0.12500000    0.75000000    0.66666667
    0.12500000    0.75000000    0.75000000
    0.12500000    0.75000000    0.83333333
    0.12500000    0.75000000    0.91666667
    0.12500000    0.81250000    0.00000000
    0.12500000    0.81250000    0.08333333
    0.12500000    0.81250000    0.16666667
    0.12500000    0.81250000    0.25000000
    0.12500000    0.81250000    0.33333333
    0.12500000    0.81250000    0.41666667
    0.12500000    0.81250000    0.50000000
    0.12500000    0.81250000    0.58333333
    0.12500000    0.81250000    0.66666667
    0.12500000    0.81250000    0.75000000
    0.12500000    0.81250000    0.83333333
    0.12500000    0.81250000    0.91666667
    0.12500000    0.87500000    0.00000000
    0.12500000    0.87500000    0.08333333
    0.12500000    0.87500000    0.16666667
    0.12500000    0.87500000    0.25000000
    0.12500000    0.87500000    0.33333333
    0.12500000    0.87500000    0.41666667
    0.12500000    0.87500000    0.50000000
    0.12500000    0.87500000    0.58333333
    0.12500000    0.87500000    0.66666667
    0.12500000    0.87500000    0.75000000
    0.12500000    0.87500000    0.83333333
    0.12500000    0.87500000    0.91666667
    0.12500000    0.93750000    0.00000000
    0.12500000    0.93750000    0.08333333
    0.12500000    0.93750000    0.16666667
    0.12500000    0.93750000    0.25000000
    0.12500000    0.93750000    0.33333333
    0.12500000    0.93750000    0.41666667
    0.12500000    0.93750000    0.50000000
    0.12500000    0.93750000    0.58333333
    0.12500000    0.93750000    0.66666667
    0.12500000    0.93750000    0.75000000
    0.12500000    0.93750000    0.83333333
    0.12500000    0.93750000    0.91666667
    0.18750000    0.00000000    0.00000000
    0.18750000    0.00000000    0.08333333
    0.18750000    0.00000000    0.16666667
    0.18750000    0.00000000    0.25000000
    0.18750000    0.00000000    0.33333333
    0.18750000    0.00000000    0.41666667
    0.18750000    0.00000000    0.50000000
    0.18750000    0.00000000    0.58333333
    0.18750000    0.00000000    0.66666667
    0.18750000    0.00000000    0.75000000
    0.18750000    0.00000000    0.83333333
    0.18750000    0.00000000    0.91666667
    0.18750000    0.06250000    0.00000000
    0.18750000    0.06250000    0.08333333
    0.18750000    0.06250000    0.16666667
    0.18750000    0.06250000    0.25000000
    0.18750000    0.06250000    0.33333333
    0.18750000    0.06250000    0.41666667
    0.18750000    0.06250000    0.50000000
    0.18750000    0.06250000    0.58333333
    0.18750000    0.06250000    0.66666667
    0.18750000    0.06250000    0.75000000
    0.18750000    0.06250000    0.83333333
    0.18750000    0.06250000    0.91666667
    0.18750000    0.12500000    0.00000000
    0.18750000    0.12500000    0.08333333
    0.18750000    0.12500000    0.16666667
    0.18750000    0.12500000    0.25000000
    0.18750000    0.12500000    0.33333333
    0.18750000    0.12500000    0.41666667
    0.18750000    0.12500000    0.50000000
    0.18750000    0.12500000    0.58333333
    0.18750000    0.12500000    0.66666667
    0.18750000    0.12500000    0.75000000
    0.18750000    0.12500000    0.83333333
    0.18750000    0.12500000    0.91666667
    0.18750000    0.18750000    0.00000000
    0.18750000    0.18750000    0.08333333
    0.18750000    0.18750000    0.16666667
    0.18750000    0.18750000    0.25000000
    0.18750000    0.18750000    0.33333333
    0.18750000    0.18750000    0.41666667
    0.18750000    0.18750000    0.50000000
    0.18750000    0.18750000    0.58333333
    0.18750000    0.18750000    0.66666667
    0.18750000    0.18750000    0.75000000
    0.18750000    0.18750000    0.83333333
    0.18750000    0.18750000    0.91666667
    0.18750000    0.25000000    0.00000000
    0.18750000    0.25000000    0.08333333
    0.18750000    0.25000000    0.16666667
    0.18750000    0.25000000    0.25000000
    0.18750000    0.25000000    0.33333333
    0.18750000    0.25000000    0.41666667
    0.18750000    0.25000000    0.50000000
    0.18750000    0.25000000    0.58333333
    0.18750000    0.25000000    0.66666667
    0.18750000    0.25000000    0.75000000
    0.18750000    0.25000000    0.83333333
    0.18750000    0.25000000    0.91666667
    0.18750000    0.31250000    0.00000000
    0.18750000    0.31250000    0.08333333
    0.18750000    0.31250000    0.16666667
    0.18750000    0.31250000    0.25000000
    0.18750000    0.31250000    0.33333333
    0.18750000    0.31250000    0.41666667
    0.18750000    0.31250000    0.50000000
    0.18750000    0.31250000    0.58333333
    0.18750000    0.31250000    0.66666667
    0.18750000    0.31250000    0.75000000
    0.18750000    0.31250000    0.83333333
    0.18750000    0.31250000    0.91666667
    0.18750000    0.37500000    0.00000000
    0.18750000    0.37500000    0.08333333
    0.18750000    0.37500000    0.16666667
    0.18750000    0.37500000    0.25000000
    0.18750000    0.37500000    0.33333333
    0.18750000    0.37500000    0.41666667
    0.18750000    0.37500000    0.50000000
    0.18750000    0.37500000    0.58333333
    0.18750000    0.37500000    0.66666667
    0.18750000    0.37500000    0.75000000
    0.18750000    0.37500000    0.83333333
    0.18750000    0.37500000    0.91666667
    0.18750000    0.43750000    0.00000000
    0.18750000    0.43750000    0.08333333
    0.18750000    0.43750000    0.16666667
    0.18750000    0.43750000    0.25000000
    0.18750000    0.43750000    0.33333333
    0.18750000    0.43750000    0.41666667
    0.18750000    0.43750000    0.50000000
    0.18750000    0.43750000    0.58333333
    0.18750000    0.43750000    0.66666667
    0.18750000    0.43750000    0.75000000
    0.18750000    0.43750000    0.83333333
    0.18750000    0.43750000    0.91666667
    0.18750000    0.50000000    0.00000000
    0.18750000    0.50000000    0.08333333
    0.18750000    0.50000000    0.16666667
    0.18750000    0.50000000    0.25000000
    0.18750000    0.50000000    0.33333333
    0.18750000    0.50000000    0.41666667
    0.18750000    0.50000000    0.50000000
    0.18750000    0.50000000    0.58333333
    0.18750000    0.50000000    0.66666667
    0.18750000    0.50000000    0.75000000
    0.18750000    0.50000000    0.83333333
    0.18750000    0.50000000    0.91666667
    0.18750000    0.56250000    0.00000000
    0.18750000    0.56250000    0.08333333
    0.18750000    0.56250000    0.16666667
    0.18750000    0.56250000    0.25000000
    0.18750000    0.56250000    0.33333333
    0.18750000    0.56250000    0.41666667
    0.18750000    0.56250000    0.50000000
    0.18750000    0.56250000    0.58333333
    0.18750000    0.56250000    0.66666667
    0.18750000    0.56250000    0.75000000
    0.18750000    0.56250000    0.83333333
    0.18750000    0.56250000    0.91666667
    0.18750000    0.62500000    0.00000000
    0.18750000    0.62500000    0.08333333
    0.18750000    0.62500000    0.16666667
    0.18750000    0.62500000    0.25000000
    0.18750000    0.62500000    0.33333333
    0.18750000    0.62500000    0.41666667
    0.18750000    0.62500000    0.50000000
    0.18750000    0.62500000    0.58333333
    0.18750000    0.62500000    0.66666667
    0.18750000    0.62500000    0.75000000
    0.18750000    0.62500000    0.83333333
    0.18750000    0.62500000    0.91666667
    0.18750000    0.68750000    0.00000000
    0.18750000    0.68750000    0.08333333
    0.18750000    0.68750000    0.16666667
    0.18750000    0.68750000    0.25000000
    0.18750000    0.68750000    0.33333333
    0.18750000    0.68750000    0.41666667
    0.18750000    0.68750000    0.50000000
    0.18750000    0.68750000    0.58333333
    0.18750000    0.68750000    0.66666667
    0.18750000    0.68750000    0.75000000
    0.18750000    0.68750000    0.83333333
    0.18750000    0.68750000    0.91666667
    0.18750000    0.75000000    0.00000000
    0.18750000    0.75000000    0.08333333
    0.18750000    0.75000000    0.16666667
    0.18750000    0.75000000    0.25000000
    0.18750000    0.75000000    0.33333333
    0.18750000    0.75000000    0.41666667
    0.18750000    0.75000000    0.50000000
    0.18750000    0.75000000    0.58333333
    0.18750000    0.75000000    0.66666667
    0.18750000    0.75000000    0.75000000
    0.18750000    0.75000000    0.83333333
    0.18750000    0.75000000    0.91666667
    0.18750000    0.81250000    0.00000000
    0.18750000    0.81250000    0.08333333
    0.18750000    0.81250000    0.16666667
    0.18750000    0.81250000    0.25000000
    0.18750000    0.81250000    0.33333333
    0.18750000    0.81250000    0.41666667
    0.18750000    0.81250000    0.50000000
    0.18750000    0.81250000    0.58333333
    0.18750000    0.81250000    0.66666667
    0.18750000    0.81250000    0.75000000
    0.18750000    0.81250000    0.83333333
    0.18750000    0.81250000    0.91666667
    0.18750000    0.87500000    0.00000000
    0.18750000    0.87500000    0.08333333
    0.18750000    0.87500000    0.16666667
    0.18750000    0.87500000    0.25000000
    0.18750000    0.87500000    0.33333333
    0.18750000    0.87500000    0.41666667
    0.18750000    0.87500000    0.50000000
    0.18750000    0.87500000    0.58333333
    0.18750000    0.87500000    0.66666667
    0.18750000    0.87500000    0.75000000
    0.18750000    0.87500000    0.83333333
    0.18750000    0.87500000    0.91666667
    0.18750000    0.93750000    0.00000000
    0.18750000    0.93750000    0.08333333
    0.18750000    0.93750000    0.16666667
    0.18750000    0.93750000    0.25000000
    0.18750000    0.93750000    0.33333333
    0.18750000    0.93750000    0.41666667
    0.18750000    0.93750000    0.50000000
    0.18750000    0.93750000    0.58333333
    0.18750000    0.93750000    0.66666667
    0.18750000    0.93750000    0.75000000
    0.18750000    0.93750000    0.83333333
    0.18750000    0.93750000    0.91666667
    0.25000000    0.00000000    0.00000000
    0.25000000    0.00000000    0.08333333
    0.25000000    0.00000000    0.16666667
    0.25000000    0.00000000    0.25000000
    0.25000000    0.00000000    0.33333333
    0.25000000    0.00000000    0.41666667
    0.25000000    0.00000000    0.50000000
    0.25000000    0.00000000    0.58333333
    0.25000000    0.00000000    0.66666667
    0.25000000    0.00000000    0.75000000
    0.25000000    0.00000000    0.83333333
    0.25000000    0.00000000    0.91666667
    0.25000000    0.06250000    0.00000000
    0.25000000    0.06250000    0.08333333
    0.25000000    0.06250000    0.16666667
    0.25000000    0.06250000    0.25000000
    0.25000000    0.06250000    0.33333333
    0.25000000    0.06250000    0.41666667
    0.25000000    0.06250000    0.50000000
    0.25000000    0.06250000    0.58333333
    0.25000000    0.06250000    0.66666667
    0.25000000    0.06250000    0.75000000
    0.25000000    0.06250000    0.83333333
    0.25000000    0.06250000    0.91666667
    0.25000000    0.12500000    0.00000000
    0.25000000    0.12500000    0.08333333
    0.25000000    0.12500000    0.16666667
    0.25000000    0.12500000    0.25000000
    0.25000000    0.12500000    0.33333333
    0.25000000    0.12500000    0.41666667
    0.25000000    0.12500000    0.50000000
    0.25000000    0.12500000    0.58333333
    0.25000000    0.12500000    0.66666667
    0.25000000    0.12500000    0.75000000
    0.25000000    0.12500000    0.83333333
    0.25000000    0.12500000    0.91666667
    0.25000000    0.18750000    0.00000000
    0.25000000    0.18750000    0.08333333
    0.25000000    0.18750000    0.16666667
    0.25000000    0.18750000    0.25000000
    0.25000000    0.18750000    0.33333333
    0.25000000    0.18750000    0.41666667
    0.25000000    0.18750000    0.50000000
    0.25000000    0.18750000    0.58333333
    0.25000000    0.18750000    0.66666667
    0.25000000    0.18750000    0.75000000
    0.25000000    0.18750000    0.83333333
    0.25000000    0.18750000    0.91666667
    0.25000000    0.25000000    0.00000000
    0.25000000    0.25000000    0.08333333
    0.25000000    0.25000000    0.16666667
    0.25000000    0.25000000    0.25000000
    0.25000000    0.25000000    0.33333333
    0.25000000    0.25000000    0.41666667
    0.25000000    0.25000000    0.50000000
    0.25000000    0.25000000    0.58333333
    0.25000000    0.25000000    0.66666667
    0.25000000    0.25000000    0.75000000
    0.25000000    0.25000000    0.83333333
    0.25000000    0.25000000    0.91666667
    0.25000000    0.31250000    0.00000000
    0.25000000    0.31250000    0.08333333
    0.25000000    0.31250000    0.16666667
    0.25000000    0.31250000    0.25000000
    0.25000000    0.31250000    0.33333333
    0.25000000    0.31250000    0.41666667
    0.25000000    0.31250000    0.50000000
    0.25000000    0.31250000    0.58333333
    0.25000000    0.31250000    0.66666667
    0.25000000    0.31250000    0.75000000
    0.25000000    0.31250000    0.83333333
    0.25000000    0.31250000    0.91666667
    0.25000000    0.37500000    0.00000000
    0.25000000    0.37500000    0.08333333
    0.25000000    0.37500000    0.16666667
    0.25000000    0.37500000    0.25000000
    0.25000000    0.37500000    0.33333333
    0.25000000    0.37500000    0.41666667
    0.25000000    0.37500000    0.50000000
    0.25000000    0.37500000    0.58333333
    0.25000000    0.37500000    0.66666667
    0.25000000    0.37500000    0.75000000
    0.25000000    0.37500000    0.83333333
    0.25000000    0.37500000    0.91666667
    0.25000000    0.43750000    0.00000000
    0.25000000    0.43750000    0.08333333
    0.25000000    0.43750000    0.16666667
    0.25000000    0.43750000    0.25000000
    0.25000000    0.43750000    0.33333333
    0.25000000    0.43750000    0.41666667
    0.25000000    0.43750000    0.50000000
    0.25000000    0.43750000    0.58333333
    0.25000000    0.43750000    0.66666667
    0.25000000    0.43750000    0.75000000
    0.25000000    0.43750000    0.83333333
    0.25000000    0.43750000    0.91666667
    0.25000000    0.50000000    0.00000000
    0.25000000    0.50000000    0.08333333
    0.25000000    0.50000000    0.16666667
    0.25000000    0.50000000    0.25000000
    0.25000000    0.50000000    0.33333333
    0.25000000    0.50000000    0.41666667
    0.25000000    0.50000000    0.50000000
    0.25000000    0.50000000    0.58333333
    0.25000000    0.50000000    0.66666667
    0.25000000    0.50000000    0.75000000
    0.25000000    0.50000000    0.83333333
    0.25000000    0.50000000    0.91666667
    0.25000000    0.56250000    0.00000000
    0.25000000    0.56250000    0.08333333
    0.25000000    0.56250000    0.16666667
    0.25000000    0.56250000    0.25000000
    0.25000000    0.56250000    0.33333333
    0.25000000    0.56250000    0.41666667
    0.25000000    0.56250000    0.50000000
    0.25000000    0.56250000    0.58333333
    0.25000000    0.56250000    0.66666667
    0.25000000    0.56250000    0.75000000
    0.25000000    0.56250000    0.83333333
    0.25000000    0.56250000    0.91666667
    0.25000000    0.62500000    0.00000000
    0.25000000    0.62500000    0.08333333
    0.25000000    0.62500000    0.16666667
    0.25000000    0.62500000    0.25000000
    0.25000000    0.62500000    0.33333333
    0.25000000    0.62500000    0.41666667
    0.25000000    0.62500000    0.50000000
    0.25000000    0.62500000    0.58333333
    0.25000000    0.62500000    0.66666667
    0.25000000    0.62500000    0.75000000
    0.25000000    0.62500000    0.83333333
    0.25000000    0.62500000    0.91666667
    0.25000000    0.68750000    0.00000000
    0.25000000    0.68750000    0.08333333
    0.25000000    0.68750000    0.16666667
    0.25000000    0.68750000    0.25000000
    0.25000000    0.68750000    0.33333333
    0.25000000    0.68750000    0.41666667
    0.25000000    0.68750000    0.50000000
    0.25000000    0.68750000    0.58333333
    0.25000000    0.68750000    0.66666667
    0.25000000    0.68750000    0.75000000
    0.25000000    0.68750000    0.83333333
    0.25000000    0.68750000    0.91666667
    0.25000000    0.75000000    0.00000000
    0.25000000    0.75000000    0.08333333
    0.25000000    0.75000000    0.16666667
    0.25000000    0.75000000    0.25000000
    0.25000000    0.75000000    0.33333333
    0.25000000    0.75000000    0.41666667
    0.25000000    0.75000000    0.50000000
    0.25000000    0.75000000    0.58333333
    0.25000000    0.75000000    0.66666667
    0.25000000    0.75000000    0.75000000
    0.25000000    0.75000000    0.83333333
    0.25000000    0.75000000    0.91666667
    0.25000000    0.81250000    0.00000000
    0.25000000    0.81250000    0.08333333
    0.25000000    0.81250000    0.16666667
    0.25000000    0.81250000    0.25000000
    0.25000000    0.81250000    0.33333333
    0.25000000    0.81250000    0.41666667
    0.25000000    0.81250000    0.50000000
    0.25000000    0.81250000    0.58333333
    0.25000000    0.81250000    0.66666667
    0.25000000    0.81250000    0.75000000
    0.25000000    0.81250000    0.83333333
    0.25000000    0.81250000    0.91666667
    0.25000000    0.87500000    0.00000000
    0.25000000    0.87500000    0.08333333
    0.25000000    0.87500000    0.16666667
    0.25000000    0.87500000    0.25000000
    0.25000000    0.87500000    0.33333333
    0.25000000    0.87500000    0.41666667
    0.25000000    0.87500000    0.50000000
    0.25000000    0.87500000    0.58333333
    0.25000000    0.87500000    0.66666667
    0.25000000    0.87500000    0.75000000
    0.25000000    0.87500000    0.83333333
    0.25000000    0.87500000    0.91666667
    0.25000000    0.93750000    0.00000000
    0.25000000    0.93750000    0.08333333
    0.25000000    0.93750000    0.16666667
    0.25000000    0.93750000    0.25000000
    0.25000000    0.93750000    0.33333333
    0.25000000    0.93750000    0.41666667
    0.25000000    0.93750000    0.50000000
    0.25000000    0.93750000    0.58333333
    0.25000000    0.93750000    0.66666667
    0.25000000    0.93750000    0.75000000
    0.25000000    0.93750000    0.83333333
    0.25000000    0.93750000    0.91666667
    0.31250000    0.00000000    0.00000000
    0.31250000    0.00000000    0.08333333
    0.31250000    0.00000000    0.16666667
    0.31250000    0.00000000    0.25000000
    0.31250000    0.00000000    0.33333333
    0.31250000    0.00000000    0.41666667
    0.31250000    0.00000000    0.50000000
    0.31250000    0.00000000    0.58333333
    0.31250000    0.00000000    0.66666667
    0.31250000    0.00000000    0.75000000
    0.31250000    0.00000000    0.83333333
    0.31250000    0.00000000    0.91666667
    0.31250000    0.06250000    0.00000000
    0.31250000    0.06250000    0.08333333
    0.31250000    0.06250000    0.16666667
    0.31250000    0.06250000    0.25000000
    0.31250000    0.06250000    0.33333333
    0.31250000    0.06250000    0.41666667
    0.31250000    0.06250000    0.50000000
    0.31250000    0.06250000    0.58333333
    0.31250000    0.06250000    0.66666667
    0.31250000    0.06250000    0.75000000
    0.31250000    0.06250000    0.83333333
    0.31250000    0.06250000    0.91666667
    0.31250000    0.12500000    0.00000000
    0.31250000    0.12500000    0.08333333
    0.31250000    0.12500000    0.16666667
    0.31250000    0.12500000    0.25000000
    0.31250000    0.12500000    0.33333333
    0.31250000    0.12500000    0.41666667
    0.31250000    0.12500000    0.50000000
    0.31250000    0.12500000    0.58333333
    0.31250000    0.12500000    0.66666667
    0.31250000    0.12500000    0.75000000
    0.31250000    0.12500000    0.83333333
    0.31250000    0.12500000    0.91666667
    0.31250000    0.18750000    0.00000000
    0.31250000    0.18750000    0.08333333
    0.31250000    0.18750000    0.16666667
    0.31250000    0.18750000    0.25000000
    0.31250000    0.18750000    0.33333333
    0.31250000    0.18750000    0.41666667
    0.31250000    0.18750000    0.50000000
    0.31250000    0.18750000    0.58333333
    0.31250000    0.18750000    0.66666667
    0.31250000    0.18750000    0.75000000
    0.31250000    0.18750000    0.83333333
    0.31250000    0.18750000    0.91666667
    0.31250000    0.25000000    0.00000000
    0.31250000    0.25000000    0.08333333
    0.31250000    0.25000000    0.16666667
    0.31250000    0.25000000    0.25000000
    0.31250000    0.25000000    0.33333333
    0.31250000    0.25000000    0.41666667
    0.31250000    0.25000000    0.50000000
    0.31250000    0.25000000    0.58333333
    0.31250000    0.25000000    0.66666667
    0.31250000    0.25000000    0.75000000
    0.31250000    0.25000000    0.83333333
    0.31250000    0.25000000    0.91666667
    0.31250000    0.31250000    0.00000000
    0.31250000    0.31250000    0.08333333
    0.31250000    0.31250000    0.16666667
    0.31250000    0.31250000    0.25000000
    0.31250000    0.31250000    0.33333333
    0.31250000    0.31250000    0.41666667
    0.31250000    0.31250000    0.50000000
    0.31250000    0.31250000    0.58333333
    0.31250000    0.31250000    0.66666667
    0.31250000    0.31250000    0.75000000
    0.31250000    0.31250000    0.83333333
    0.31250000    0.31250000    0.91666667
    0.31250000    0.37500000    0.00000000
    0.31250000    0.37500000    0.08333333
    0.31250000    0.37500000    0.16666667
    0.31250000    0.37500000    0.25000000
    0.31250000    0.37500000    0.33333333
    0.31250000    0.37500000    0.41666667
    0.31250000    0.37500000    0.50000000
    0.31250000    0.37500000    0.58333333
    0.31250000    0.37500000    0.66666667
    0.31250000    0.37500000    0.75000000
    0.31250000    0.37500000    0.83333333
    0.31250000    0.37500000    0.91666667
    0.31250000    0.43750000    0.00000000
    0.31250000    0.43750000    0.08333333
    0.31250000    0.43750000    0.16666667
    0.31250000    0.43750000    0.25000000
    0.31250000    0.43750000    0.33333333
    0.31250000    0.43750000    0.41666667
    0.31250000    0.43750000    0.50000000
    0.31250000    0.43750000    0.58333333
    0.31250000    0.43750000    0.66666667
    0.31250000    0.43750000    0.75000000
    0.31250000    0.43750000    0.83333333
    0.31250000    0.43750000    0.91666667
    0.31250000    0.50000000    0.00000000
    0.31250000    0.50000000    0.08333333
    0.31250000    0.50000000    0.16666667
    0.31250000    0.50000000    0.25000000
    0.31250000    0.50000000    0.33333333
    0.31250000    0.50000000    0.41666667
    0.31250000    0.50000000    0.50000000
    0.31250000    0.50000000    0.58333333
    0.31250000    0.50000000    0.66666667
    0.31250000    0.50000000    0.75000000
    0.31250000    0.50000000    0.83333333
    0.31250000    0.50000000    0.91666667
    0.31250000    0.56250000    0.00000000
    0.31250000    0.56250000    0.08333333
    0.31250000    0.56250000    0.16666667
    0.31250000    0.56250000    0.25000000
    0.31250000    0.56250000    0.33333333
    0.31250000    0.56250000    0.41666667
    0.31250000    0.56250000    0.50000000
    0.31250000    0.56250000    0.58333333
    0.31250000    0.56250000    0.66666667
    0.31250000    0.56250000    0.75000000
    0.31250000    0.56250000    0.83333333
    0.31250000    0.56250000    0.91666667
    0.31250000    0.62500000    0.00000000
    0.31250000    0.62500000    0.08333333
    0.31250000    0.62500000    0.16666667
    0.31250000    0.62500000    0.25000000
    0.31250000    0.62500000    0.33333333
    0.31250000    0.62500000    0.41666667
    0.31250000    0.62500000    0.50000000
    0.31250000    0.62500000    0.58333333
    0.31250000    0.62500000    0.66666667
    0.31250000    0.62500000    0.75000000
    0.31250000    0.62500000    0.83333333
    0.31250000    0.62500000    0.91666667
    0.31250000    0.68750000    0.00000000
    0.31250000    0.68750000    0.08333333
    0.31250000    0.68750000    0.16666667
    0.31250000    0.68750000    0.25000000
    0.31250000    0.68750000    0.33333333
    0.31250000    0.68750000    0.41666667
    0.31250000    0.68750000    0.50000000
    0.31250000    0.68750000    0.58333333
    0.31250000    0.68750000    0.66666667
    0.31250000    0.68750000    0.75000000
    0.31250000    0.68750000    0.83333333
    0.31250000    0.68750000    0.91666667
    0.31250000    0.75000000    0.00000000
    0.31250000    0.75000000    0.08333333
    0.31250000    0.75000000    0.16666667
    0.31250000    0.75000000    0.25000000
    0.31250000    0.75000000    0.33333333
    0.31250000    0.75000000    0.41666667
    0.31250000    0.75000000    0.50000000
    0.31250000    0.75000000    0.58333333
    0.31250000    0.75000000    0.66666667
    0.31250000    0.75000000    0.75000000
    0.31250000    0.75000000    0.83333333
    0.31250000    0.75000000    0.91666667
    0.31250000    0.81250000    0.00000000
    0.31250000    0.81250000    0.08333333
    0.31250000    0.81250000    0.16666667
    0.31250000    0.81250000    0.25000000
    0.31250000    0.81250000    0.33333333
    0.31250000    0.81250000    0.41666667
    0.31250000    0.81250000    0.50000000
    0.31250000    0.81250000    0.58333333
    0.31250000    0.81250000    0.66666667
    0.31250000    0.81250000    0.75000000
    0.31250000    0.81250000    0.83333333
    0.31250000    0.81250000    0.91666667
    0.31250000    0.87500000    0.00000000
    0.31250000    0.87500000    0.08333333
    0.31250000    0.87500000    0.16666667
    0.31250000    0.87500000    0.25000000
    0.31250000    0.87500000    0.33333333
    0.31250000    0.87500000    0.41666667
    0.31250000    0.87500000    0.50000000
    0.31250000    0.87500000    0.58333333
    0.31250000    0.87500000    0.66666667
    0.31250000    0.87500000    0.75000000
    0.31250000    0.87500000    0.83333333
    0.31250000    0.87500000    0.91666667
    0.31250000    0.93750000    0.00000000
    0.31250000    0.93750000    0.08333333
    0.31250000    0.93750000    0.16666667
    0.31250000    0.93750000    0.25000000
    0.31250000    0.93750000    0.33333333
    0.31250000    0.93750000    0.41666667
    0.31250000    0.93750000    0.50000000
    0.31250000    0.93750000    0.58333333
    0.31250000    0.93750000    0.66666667
    0.31250000    0.93750000    0.75000000
    0.31250000    0.93750000    0.83333333
    0.31250000    0.93750000    0.91666667
    0.37500000    0.00000000    0.00000000
    0.37500000    0.00000000    0.08333333
    0.37500000    0.00000000    0.16666667
    0.37500000    0.00000000    0.25000000
    0.37500000    0.00000000    0.33333333
    0.37500000    0.00000000    0.41666667
    0.37500000    0.00000000    0.50000000
    0.37500000    0.00000000    0.58333333
    0.37500000    0.00000000    0.66666667
    0.37500000    0.00000000    0.75000000
    0.37500000    0.00000000    0.83333333
    0.37500000    0.00000000    0.91666667
    0.37500000    0.06250000    0.00000000
    0.37500000    0.06250000    0.08333333
    0.37500000    0.06250000    0.16666667
    0.37500000    0.06250000    0.25000000
    0.37500000    0.06250000    0.33333333
    0.37500000    0.06250000    0.41666667
    0.37500000    0.06250000    0.50000000
    0.37500000    0.06250000    0.58333333
    0.37500000    0.06250000    0.66666667
    0.37500000    0.06250000    0.75000000
    0.37500000    0.06250000    0.83333333
    0.37500000    0.06250000    0.91666667
    0.37500000    0.12500000    0.00000000
    0.37500000    0.12500000    0.08333333
    0.37500000    0.12500000    0.16666667
    0.37500000    0.12500000    0.25000000
    0.37500000    0.12500000    0.33333333
    0.37500000    0.12500000    0.41666667
    0.37500000    0.12500000    0.50000000
    0.37500000    0.12500000    0.58333333
    0.37500000    0.12500000    0.66666667
    0.37500000    0.12500000    0.75000000
    0.37500000    0.12500000    0.83333333
    0.37500000    0.12500000    0.91666667
    0.37500000    0.18750000    0.00000000
    0.37500000    0.18750000    0.08333333
    0.37500000    0.18750000    0.16666667
    0.37500000    0.18750000    0.25000000
    0.37500000    0.18750000    0.33333333
    0.37500000    0.18750000    0.41666667
    0.37500000    0.18750000    0.50000000
    0.37500000    0.18750000    0.58333333
    0.37500000    0.18750000    0.66666667
    0.37500000    0.18750000    0.75000000
    0.37500000    0.18750000    0.83333333
    0.37500000    0.18750000    0.91666667
    0.37500000    0.25000000    0.00000000
    0.37500000    0.25000000    0.08333333
    0.37500000    0.25000000    0.16666667
    0.37500000    0.25000000    0.25000000
    0.37500000    0.25000000    0.33333333
    0.37500000    0.25000000    0.41666667
    0.37500000    0.25000000    0.50000000
    0.37500000    0.25000000    0.58333333
    0.37500000    0.25000000    0.66666667
    0.37500000    0.25000000    0.75000000
    0.37500000    0.25000000    0.83333333
    0.37500000    0.25000000    0.91666667
    0.37500000    0.31250000    0.00000000
    0.37500000    0.31250000    0.08333333
    0.37500000    0.31250000    0.16666667
    0.37500000    0.31250000    0.25000000
    0.37500000    0.31250000    0.33333333
    0.37500000    0.31250000    0.41666667
    0.37500000    0.31250000    0.50000000
    0.37500000    0.31250000    0.58333333
    0.37500000    0.31250000    0.66666667
    0.37500000    0.31250000    0.75000000
    0.37500000    0.31250000    0.83333333
    0.37500000    0.31250000    0.91666667
    0.37500000    0.37500000    0.00000000
    0.37500000    0.37500000    0.08333333
    0.37500000    0.37500000    0.16666667
    0.37500000    0.37500000    0.25000000
    0.37500000    0.37500000    0.33333333
    0.37500000    0.37500000    0.41666667
    0.37500000    0.37500000    0.50000000
    0.37500000    0.37500000    0.58333333
    0.37500000    0.37500000    0.66666667
    0.37500000    0.37500000    0.75000000
    0.37500000    0.37500000    0.83333333
    0.37500000    0.37500000    0.91666667
    0.37500000    0.43750000    0.00000000
    0.37500000    0.43750000    0.08333333
    0.37500000    0.43750000    0.16666667
    0.37500000    0.43750000    0.25000000
    0.37500000    0.43750000    0.33333333
    0.37500000    0.43750000    0.41666667
    0.37500000    0.43750000    0.50000000
    0.37500000    0.43750000    0.58333333
    0.37500000    0.43750000    0.66666667
    0.37500000    0.43750000    0.75000000
    0.37500000    0.43750000    0.83333333
    0.37500000    0.43750000    0.91666667
    0.37500000    0.50000000    0.00000000
    0.37500000    0.50000000    0.08333333
    0.37500000    0.50000000    0.16666667
    0.37500000    0.50000000    0.25000000
    0.37500000    0.50000000    0.33333333
    0.37500000    0.50000000    0.41666667
    0.37500000    0.50000000    0.50000000
    0.37500000    0.50000000    0.58333333
    0.37500000    0.50000000    0.66666667
    0.37500000    0.50000000    0.75000000
    0.37500000    0.50000000    0.83333333
    0.37500000    0.50000000    0.91666667
    0.37500000    0.56250000    0.00000000
    0.37500000    0.56250000    0.08333333
    0.37500000    0.56250000    0.16666667
    0.37500000    0.56250000    0.25000000
    0.37500000    0.56250000    0.33333333
    0.37500000    0.56250000    0.41666667
    0.37500000    0.56250000    0.50000000
    0.37500000    0.56250000    0.58333333
    0.37500000    0.56250000    0.66666667
    0.37500000    0.56250000    0.75000000
    0.37500000    0.56250000    0.83333333
    0.37500000    0.56250000    0.91666667
    0.37500000    0.62500000    0.00000000
    0.37500000    0.62500000    0.08333333
    0.37500000    0.62500000    0.16666667
    0.37500000    0.62500000    0.25000000
    0.37500000    0.62500000    0.33333333
    0.37500000    0.62500000    0.41666667
    0.37500000    0.62500000    0.50000000
    0.37500000    0.62500000    0.58333333
    0.37500000    0.62500000    0.66666667
    0.37500000    0.62500000    0.75000000
    0.37500000    0.62500000    0.83333333
    0.37500000    0.62500000    0.91666667
    0.37500000    0.68750000    0.00000000
    0.37500000    0.68750000    0.08333333
    0.37500000    0.68750000    0.16666667
    0.37500000    0.68750000    0.25000000
    0.37500000    0.68750000    0.33333333
    0.37500000    0.68750000    0.41666667
    0.37500000    0.68750000    0.50000000
    0.37500000    0.68750000    0.58333333
    0.37500000    0.68750000    0.66666667
    0.37500000    0.68750000    0.75000000
    0.37500000    0.68750000    0.83333333
    0.37500000    0.68750000    0.91666667
    0.37500000    0.75000000    0.00000000
    0.37500000    0.75000000    0.08333333
    0.37500000    0.75000000    0.16666667
    0.37500000    0.75000000    0.25000000
    0.37500000    0.75000000    0.33333333
    0.37500000    0.75000000    0.41666667
    0.37500000    0.75000000    0.50000000
    0.37500000    0.75000000    0.58333333
    0.37500000    0.75000000    0.66666667
    0.37500000    0.75000000    0.75000000
    0.37500000    0.75000000    0.83333333
    0.37500000    0.75000000    0.91666667
    0.37500000    0.81250000    0.00000000
    0.37500000    0.81250000    0.08333333
    0.37500000    0.81250000    0.16666667
    0.37500000    0.81250000    0.25000000
    0.37500000    0.81250000    0.33333333
    0.37500000    0.81250000    0.41666667
    0.37500000    0.81250000    0.50000000
    0.37500000    0.81250000    0.58333333
    0.37500000    0.81250000    0.66666667
    0.37500000    0.81250000    0.75000000
    0.37500000    0.81250000    0.83333333
    0.37500000    0.81250000    0.91666667
    0.37500000    0.87500000    0.00000000
    0.37500000    0.87500000    0.08333333
    0.37500000    0.87500000    0.16666667
    0.37500000    0.87500000    0.25000000
    0.37500000    0.87500000    0.33333333
    0.37500000    0.87500000    0.41666667
    0.37500000    0.87500000    0.50000000
    0.37500000    0.87500000    0.58333333
    0.37500000    0.87500000    0.66666667
    0.37500000    0.87500000    0.75000000
    0.37500000    0.87500000    0.83333333
    0.37500000    0.87500000    0.91666667
    0.37500000    0.93750000    0.00000000
    0.37500000    0.93750000    0.08333333
    0.37500000    0.93750000    0.16666667
    0.37500000    0.93750000    0.25000000
    0.37500000    0.93750000    0.33333333
    0.37500000    0.93750000    0.41666667
    0.37500000    0.93750000    0.50000000
    0.37500000    0.93750000    0.58333333
    0.37500000    0.93750000    0.66666667
    0.37500000    0.93750000    0.75000000
    0.37500000    0.93750000    0.83333333
    0.37500000    0.93750000    0.91666667
    0.43750000    0.00000000    0.00000000
    0.43750000    0.00000000    0.08333333
    0.43750000    0.00000000    0.16666667
    0.43750000    0.00000000    0.25000000
    0.43750000    0.00000000    0.33333333
    0.43750000    0.00000000    0.41666667
    0.43750000    0.00000000    0.50000000
    0.43750000    0.00000000    0.58333333
    0.43750000    0.00000000    0.66666667
    0.43750000    0.00000000    0.75000000
    0.43750000    0.00000000    0.83333333
    0.43750000    0.00000000    0.91666667
    0.43750000    0.06250000    0.00000000
    0.43750000    0.06250000    0.08333333
    0.43750000    0.06250000    0.16666667
    0.43750000    0.06250000    0.25000000
    0.43750000    0.06250000    0.33333333
    0.43750000    0.06250000    0.41666667
    0.43750000    0.06250000    0.50000000
    0.43750000    0.06250000    0.58333333
    0.43750000    0.06250000    0.66666667
    0.43750000    0.06250000    0.75000000
    0.43750000    0.06250000    0.83333333
    0.43750000    0.06250000    0.91666667
    0.43750000    0.12500000    0.00000000
    0.43750000    0.12500000    0.08333333
    0.43750000    0.12500000    0.16666667
    0.43750000    0.12500000    0.25000000
    0.43750000    0.12500000    0.33333333
    0.43750000    0.12500000    0.41666667
    0.43750000    0.12500000    0.50000000
    0.43750000    0.12500000    0.58333333
    0.43750000    0.12500000    0.66666667
    0.43750000    0.12500000    0.75000000
    0.43750000    0.12500000    0.83333333
    0.43750000    0.12500000    0.91666667
    0.43750000    0.18750000    0.00000000
    0.43750000    0.18750000    0.08333333
    0.43750000    0.18750000    0.16666667
    0.43750000    0.18750000    0.25000000
    0.43750000    0.18750000    0.33333333
    0.43750000    0.18750000    0.41666667
    0.43750000    0.18750000    0.50000000
    0.43750000    0.18750000    0.58333333
    0.43750000    0.18750000    0.66666667
    0.43750000    0.18750000    0.75000000
    0.43750000    0.18750000    0.83333333
    0.43750000    0.18750000    0.91666667
    0.43750000    0.25000000    0.00000000
    0.43750000    0.25000000    0.08333333
    0.43750000    0.25000000    0.16666667
    0.43750000    0.25000000    0.25000000
    0.43750000    0.25000000    0.33333333
    0.43750000    0.25000000    0.41666667
    0.43750000    0.25000000    0.50000000
    0.43750000    0.25000000    0.58333333
    0.43750000    0.25000000    0.66666667
    0.43750000    0.25000000    0.75000000
    0.43750000    0.25000000    0.83333333
    0.43750000    0.25000000    0.91666667
    0.43750000    0.31250000    0.00000000
    0.43750000    0.31250000    0.08333333
    0.43750000    0.31250000    0.16666667
    0.43750000    0.31250000    0.25000000
    0.43750000    0.31250000    0.33333333
    0.43750000    0.31250000    0.41666667
    0.43750000    0.31250000    0.50000000
    0.43750000    0.31250000    0.58333333
    0.43750000    0.31250000    0.66666667
    0.43750000    0.31250000    0.75000000
    0.43750000    0.31250000    0.83333333
    0.43750000    0.31250000    0.91666667
    0.43750000    0.37500000    0.00000000
    0.43750000    0.37500000    0.08333333
    0.43750000    0.37500000    0.16666667
    0.43750000    0.37500000    0.25000000
    0.43750000    0.37500000    0.33333333
    0.43750000    0.37500000    0.41666667
    0.43750000    0.37500000    0.50000000
    0.43750000    0.37500000    0.58333333
    0.43750000    0.37500000    0.66666667
    0.43750000    0.37500000    0.75000000
    0.43750000    0.37500000    0.83333333
    0.43750000    0.37500000    0.91666667
    0.43750000    0.43750000    0.00000000
    0.43750000    0.43750000    0.08333333
    0.43750000    0.43750000    0.16666667
    0.43750000    0.43750000    0.25000000
    0.43750000    0.43750000    0.33333333
    0.43750000    0.43750000    0.41666667
    0.43750000    0.43750000    0.50000000
    0.43750000    0.43750000    0.58333333
    0.43750000    0.43750000    0.66666667
    0.43750000    0.43750000    0.75000000
    0.43750000    0.43750000    0.83333333
    0.43750000    0.43750000    0.91666667
    0.43750000    0.50000000    0.00000000
    0.43750000    0.50000000    0.08333333
    0.43750000    0.50000000    0.16666667
    0.43750000    0.50000000    0.25000000
    0.43750000    0.50000000    0.33333333
    0.43750000    0.50000000    0.41666667
    0.43750000    0.50000000    0.50000000
    0.43750000    0.50000000    0.58333333
    0.43750000    0.50000000    0.66666667
    0.43750000    0.50000000    0.75000000
    0.43750000    0.50000000    0.83333333
    0.43750000    0.50000000    0.91666667
    0.43750000    0.56250000    0.00000000
    0.43750000    0.56250000    0.08333333
    0.43750000    0.56250000    0.16666667
    0.43750000    0.56250000    0.25000000
    0.43750000    0.56250000    0.33333333
    0.43750000    0.56250000    0.41666667
    0.43750000    0.56250000    0.50000000
    0.43750000    0.56250000    0.58333333
    0.43750000    0.56250000    0.66666667
    0.43750000    0.56250000    0.75000000
    0.43750000    0.56250000    0.83333333
    0.43750000    0.56250000    0.91666667
    0.43750000    0.62500000    0.00000000
    0.43750000    0.62500000    0.08333333
    0.43750000    0.62500000    0.16666667
    0.43750000    0.62500000    0.25000000
    0.43750000    0.62500000    0.33333333
    0.43750000    0.62500000    0.41666667
    0.43750000    0.62500000    0.50000000
    0.43750000    0.62500000    0.58333333
    0.43750000    0.62500000    0.66666667
    0.43750000    0.62500000    0.75000000
    0.43750000    0.62500000    0.83333333
    0.43750000    0.62500000    0.91666667
    0.43750000    0.68750000    0.00000000
    0.43750000    0.68750000    0.08333333
    0.43750000    0.68750000    0.16666667
    0.43750000    0.68750000    0.25000000
    0.43750000    0.68750000    0.33333333
    0.43750000    0.68750000    0.41666667
    0.43750000    0.68750000    0.50000000
    0.43750000    0.68750000    0.58333333
    0.43750000    0.68750000    0.66666667
    0.43750000    0.68750000    0.75000000
    0.43750000    0.68750000    0.83333333
    0.43750000    0.68750000    0.91666667
    0.43750000    0.75000000    0.00000000
    0.43750000    0.75000000    0.08333333
    0.43750000    0.75000000    0.16666667
    0.43750000    0.75000000    0.25000000
    0.43750000    0.75000000    0.33333333
    0.43750000    0.75000000    0.41666667
    0.43750000    0.75000000    0.50000000
    0.43750000    0.75000000    0.58333333
    0.43750000    0.75000000    0.66666667
    0.43750000    0.75000000    0.75000000
    0.43750000    0.75000000    0.83333333
    0.43750000    0.75000000    0.91666667
    0.43750000    0.81250000    0.00000000
    0.43750000    0.81250000    0.08333333
    0.43750000    0.81250000    0.16666667
    0.43750000    0.81250000    0.25000000
    0.43750000    0.81250000    0.33333333
    0.43750000    0.81250000    0.41666667
    0.43750000    0.81250000    0.50000000
    0.43750000    0.81250000    0.58333333
    0.43750000    0.81250000    0.66666667
    0.43750000    0.81250000    0.75000000
    0.43750000    0.81250000    0.83333333
    0.43750000    0.81250000    0.91666667
    0.43750000    0.87500000    0.00000000
    0.43750000    0.87500000    0.08333333
    0.43750000    0.87500000    0.16666667
    0.43750000    0.87500000    0.25000000
    0.43750000    0.87500000    0.33333333
    0.43750000    0.87500000    0.41666667
    0.43750000    0.87500000    0.50000000
    0.43750000    0.87500000    0.58333333
    0.43750000    0.87500000    0.66666667
    0.43750000    0.87500000    0.75000000
    0.43750000    0.87500000    0.83333333
    0.43750000    0.87500000    0.91666667
    0.43750000    0.93750000    0.00000000
    0.43750000    0.93750000    0.08333333
    0.43750000    0.93750000    0.16666667
    0.43750000    0.93750000    0.25000000
    0.43750000    0.93750000    0.33333333
    0.43750000    0.93750000    0.41666667
    0.43750000    0.93750000    0.50000000
    0.43750000    0.93750000    0.58333333
    0.43750000    0.93750000    0.66666667
    0.43750000    0.93750000    0.75000000
    0.43750000    0.93750000    0.83333333
    0.43750000    0.93750000    0.91666667
    0.50000000    0.00000000    0.00000000
    0.50000000    0.00000000    0.08333333
    0.50000000    0.00000000    0.16666667
    0.50000000    0.00000000    0.25000000
    0.50000000    0.00000000    0.33333333
    0.50000000    0.00000000    0.41666667
    0.50000000    0.00000000    0.50000000
    0.50000000    0.00000000    0.58333333
    0.50000000    0.00000000    0.66666667
    0.50000000    0.00000000    0.75000000
    0.50000000    0.00000000    0.83333333
    0.50000000    0.00000000    0.91666667
    0.50000000    0.06250000    0.00000000
    0.50000000    0.06250000    0.08333333
    0.50000000    0.06250000    0.16666667
    0.50000000    0.06250000    0.25000000
    0.50000000    0.06250000    0.33333333
    0.50000000    0.06250000    0.41666667
    0.50000000    0.06250000    0.50000000
    0.50000000    0.06250000    0.58333333
    0.50000000    0.06250000    0.66666667
    0.50000000    0.06250000    0.75000000
    0.50000000    0.06250000    0.83333333
    0.50000000    0.06250000    0.91666667
    0.50000000    0.12500000    0.00000000
    0.50000000    0.12500000    0.08333333
    0.50000000    0.12500000    0.16666667
    0.50000000    0.12500000    0.25000000
    0.50000000    0.12500000    0.33333333
    0.50000000    0.12500000    0.41666667
    0.50000000    0.12500000    0.50000000
    0.50000000    0.12500000    0.58333333
    0.50000000    0.12500000    0.66666667
    0.50000000    0.12500000    0.75000000
    0.50000000    0.12500000    0.83333333
    0.50000000    0.12500000    0.91666667
    0.50000000    0.18750000    0.00000000
    0.50000000    0.18750000    0.08333333
    0.50000000    0.18750000    0.16666667
    0.50000000    0.18750000    0.25000000
    0.50000000    0.18750000    0.33333333
    0.50000000    0.18750000    0.41666667
    0.50000000    0.18750000    0.50000000
    0.50000000    0.18750000    0.58333333
    0.50000000    0.18750000    0.66666667
    0.50000000    0.18750000    0.75000000
    0.50000000    0.18750000    0.83333333
    0.50000000    0.18750000    0.91666667
    0.50000000    0.25000000    0.00000000
    0.50000000    0.25000000    0.08333333
    0.50000000    0.25000000    0.16666667
    0.50000000    0.25000000    0.25000000
    0.50000000    0.25000000    0.33333333
    0.50000000    0.25000000    0.41666667
    0.50000000    0.25000000    0.50000000
    0.50000000    0.25000000    0.58333333
    0.50000000    0.25000000    0.66666667
    0.50000000    0.25000000    0.75000000
    0.50000000    0.25000000    0.83333333
    0.50000000    0.25000000    0.91666667
    0.50000000    0.31250000    0.00000000
    0.50000000    0.31250000    0.08333333
    0.50000000    0.31250000    0.16666667
    0.50000000    0.31250000    0.25000000
    0.50000000    0.31250000    0.33333333
    0.50000000    0.31250000    0.41666667
    0.50000000    0.31250000    0.50000000
    0.50000000    0.31250000    0.58333333
    0.50000000    0.31250000    0.66666667
    0.50000000    0.31250000    0.75000000
    0.50000000    0.31250000    0.83333333
    0.50000000    0.31250000    0.91666667
    0.50000000    0.37500000    0.00000000
    0.50000000    0.37500000    0.08333333
    0.50000000    0.37500000    0.16666667
    0.50000000    0.37500000    0.25000000
    0.50000000    0.37500000    0.33333333
    0.50000000    0.37500000    0.41666667
    0.50000000    0.37500000    0.50000000
    0.50000000    0.37500000    0.58333333
    0.50000000    0.37500000    0.66666667
    0.50000000    0.37500000    0.75000000
    0.50000000    0.37500000    0.83333333
    0.50000000    0.37500000    0.91666667
    0.50000000    0.43750000    0.00000000
    0.50000000    0.43750000    0.08333333
    0.50000000    0.43750000    0.16666667
    0.50000000    0.43750000    0.25000000
    0.50000000    0.43750000    0.33333333
    0.50000000    0.43750000    0.41666667
    0.50000000    0.43750000    0.50000000
    0.50000000    0.43750000    0.58333333
    0.50000000    0.43750000    0.66666667
    0.50000000    0.43750000    0.75000000
    0.50000000    0.43750000    0.83333333
    0.50000000    0.43750000    0.91666667
    0.50000000    0.50000000    0.00000000
    0.50000000    0.50000000    0.08333333
    0.50000000    0.50000000    0.16666667
    0.50000000    0.50000000    0.25000000
    0.50000000    0.50000000    0.33333333
    0.50000000    0.50000000    0.41666667
    0.50000000    0.50000000    0.50000000
    0.50000000    0.50000000    0.58333333
    0.50000000    0.50000000    0.66666667
    0.50000000    0.50000000    0.75000000
    0.50000000    0.50000000    0.83333333
    0.50000000    0.50000000    0.91666667
    0.50000000    0.56250000    0.00000000
    0.50000000    0.56250000    0.08333333
    0.50000000    0.56250000    0.16666667
    0.50000000    0.56250000    0.25000000
    0.50000000    0.56250000    0.33333333
    0.50000000    0.56250000    0.41666667
    0.50000000    0.56250000    0.50000000
    0.50000000    0.56250000    0.58333333
    0.50000000    0.56250000    0.66666667
    0.50000000    0.56250000    0.75000000
    0.50000000    0.56250000    0.83333333
    0.50000000    0.56250000    0.91666667
    0.50000000    0.62500000    0.00000000
    0.50000000    0.62500000    0.08333333
    0.50000000    0.62500000    0.16666667
    0.50000000    0.62500000    0.25000000
    0.50000000    0.62500000    0.33333333
    0.50000000    0.62500000    0.41666667
    0.50000000    0.62500000    0.50000000
    0.50000000    0.62500000    0.58333333
    0.50000000    0.62500000    0.66666667
    0.50000000    0.62500000    0.75000000
    0.50000000    0.62500000    0.83333333
    0.50000000    0.62500000    0.91666667
    0.50000000    0.68750000    0.00000000
    0.50000000    0.68750000    0.08333333
    0.50000000    0.68750000    0.16666667
    0.50000000    0.68750000    0.25000000
    0.50000000    0.68750000    0.33333333
    0.50000000    0.68750000    0.41666667
    0.50000000    0.68750000    0.50000000
    0.50000000    0.68750000    0.58333333
    0.50000000    0.68750000    0.66666667
    0.50000000    0.68750000    0.75000000
    0.50000000    0.68750000    0.83333333
    0.50000000    0.68750000    0.91666667
    0.50000000    0.75000000    0.00000000
    0.50000000    0.75000000    0.08333333
    0.50000000    0.75000000    0.16666667
    0.50000000    0.75000000    0.25000000
    0.50000000    0.75000000    0.33333333
    0.50000000    0.75000000    0.41666667
    0.50000000    0.75000000    0.50000000
    0.50000000    0.75000000    0.58333333
    0.50000000    0.75000000    0.66666667
    0.50000000    0.75000000    0.75000000
    0.50000000    0.75000000    0.83333333
    0.50000000    0.75000000    0.91666667
    0.50000000    0.81250000    0.00000000
    0.50000000    0.81250000    0.08333333
    0.50000000    0.81250000    0.16666667
    0.50000000    0.81250000    0.25000000
    0.50000000    0.81250000    0.33333333
    0.50000000    0.81250000    0.41666667
    0.50000000    0.81250000    0.50000000
    0.50000000    0.81250000    0.58333333
    0.50000000    0.81250000    0.66666667
    0.50000000    0.81250000    0.75000000
    0.50000000    0.81250000    0.83333333
    0.50000000    0.81250000    0.91666667
    0.50000000    0.87500000    0.00000000
    0.50000000    0.87500000    0.08333333
    0.50000000    0.87500000    0.16666667
    0.50000000    0.87500000    0.25000000
    0.50000000    0.87500000    0.33333333
    0.50000000    0.87500000    0.41666667
    0.50000000    0.87500000    0.50000000
    0.50000000    0.87500000    0.58333333
    0.50000000    0.87500000    0.66666667
    0.50000000    0.87500000    0.75000000
    0.50000000    0.87500000    0.83333333
    0.50000000    0.87500000    0.91666667
    0.50000000    0.93750000    0.00000000
    0.50000000    0.93750000    0.08333333
    0.50000000    0.93750000    0.16666667
    0.50000000    0.93750000    0.25000000
    0.50000000    0.93750000    0.33333333
    0.50000000    0.93750000    0.41666667
    0.50000000    0.93750000    0.50000000
    0.50000000    0.93750000    0.58333333
    0.50000000    0.93750000    0.66666667
    0.50000000    0.93750000    0.75000000
    0.50000000    0.93750000    0.83333333
    0.50000000    0.93750000    0.91666667
    0.56250000    0.00000000    0.00000000
    0.56250000    0.00000000    0.08333333
    0.56250000    0.00000000    0.16666667
    0.56250000    0.00000000    0.25000000
    0.56250000    0.00000000    0.33333333
    0.56250000    0.00000000    0.41666667
    0.56250000    0.00000000    0.50000000
    0.56250000    0.00000000    0.58333333
    0.56250000    0.00000000    0.66666667
    0.56250000    0.00000000    0.75000000
    0.56250000    0.00000000    0.83333333
    0.56250000    0.00000000    0.91666667
    0.56250000    0.06250000    0.00000000
    0.56250000    0.06250000    0.08333333
    0.56250000    0.06250000    0.16666667
    0.56250000    0.06250000    0.25000000
    0.56250000    0.06250000    0.33333333
    0.56250000    0.06250000    0.41666667
    0.56250000    0.06250000    0.50000000
    0.56250000    0.06250000    0.58333333
    0.56250000    0.06250000    0.66666667
    0.56250000    0.06250000    0.75000000
    0.56250000    0.06250000    0.83333333
    0.56250000    0.06250000    0.91666667
    0.56250000    0.12500000    0.00000000
    0.56250000    0.12500000    0.08333333
    0.56250000    0.12500000    0.16666667
    0.56250000    0.12500000    0.25000000
    0.56250000    0.12500000    0.33333333
    0.56250000    0.12500000    0.41666667
    0.56250000    0.12500000    0.50000000
    0.56250000    0.12500000    0.58333333
    0.56250000    0.12500000    0.66666667
    0.56250000    0.12500000    0.75000000
    0.56250000    0.12500000    0.83333333
    0.56250000    0.12500000    0.91666667
    0.56250000    0.18750000    0.00000000
    0.56250000    0.18750000    0.08333333
    0.56250000    0.18750000    0.16666667
    0.56250000    0.18750000    0.25000000
    0.56250000    0.18750000    0.33333333
    0.56250000    0.18750000    0.41666667
    0.56250000    0.18750000    0.50000000
    0.56250000    0.18750000    0.58333333
    0.56250000    0.18750000    0.66666667
    0.56250000    0.18750000    0.75000000
    0.56250000    0.18750000    0.83333333
    0.56250000    0.18750000    0.91666667
    0.56250000    0.25000000    0.00000000
    0.56250000    0.25000000    0.08333333
    0.56250000    0.25000000    0.16666667
    0.56250000    0.25000000    0.25000000
    0.56250000    0.25000000    0.33333333
    0.56250000    0.25000000    0.41666667
    0.56250000    0.25000000    0.50000000
    0.56250000    0.25000000    0.58333333
    0.56250000    0.25000000    0.66666667
    0.56250000    0.25000000    0.75000000
    0.56250000    0.25000000    0.83333333
    0.56250000    0.25000000    0.91666667
    0.56250000    0.31250000    0.00000000
    0.56250000    0.31250000    0.08333333
    0.56250000    0.31250000    0.16666667
    0.56250000    0.31250000    0.25000000
    0.56250000    0.31250000    0.33333333
    0.56250000    0.31250000    0.41666667
    0.56250000    0.31250000    0.50000000
    0.56250000    0.31250000    0.58333333
    0.56250000    0.31250000    0.66666667
    0.56250000    0.31250000    0.75000000
    0.56250000    0.31250000    0.83333333
    0.56250000    0.31250000    0.91666667
    0.56250000    0.37500000    0.00000000
    0.56250000    0.37500000    0.08333333
    0.56250000    0.37500000    0.16666667
    0.56250000    0.37500000    0.25000000
    0.56250000    0.37500000    0.33333333
    0.56250000    0.37500000    0.41666667
    0.56250000    0.37500000    0.50000000
    0.56250000    0.37500000    0.58333333
    0.56250000    0.37500000    0.66666667
    0.56250000    0.37500000    0.75000000
    0.56250000    0.37500000    0.83333333
    0.56250000    0.37500000    0.91666667
    0.56250000    0.43750000    0.00000000
    0.56250000    0.43750000    0.08333333
    0.56250000    0.43750000    0.16666667
    0.56250000    0.43750000    0.25000000
    0.56250000    0.43750000    0.33333333
    0.56250000    0.43750000    0.41666667
    0.56250000    0.43750000    0.50000000
    0.56250000    0.43750000    0.58333333
    0.56250000    0.43750000    0.66666667
    0.56250000    0.43750000    0.75000000
    0.56250000    0.43750000    0.83333333
    0.56250000    0.43750000    0.91666667
    0.56250000    0.50000000    0.00000000
    0.56250000    0.50000000    0.08333333
    0.56250000    0.50000000    0.16666667
    0.56250000    0.50000000    0.25000000
    0.56250000    0.50000000    0.33333333
    0.56250000    0.50000000    0.41666667
    0.56250000    0.50000000    0.50000000
    0.56250000    0.50000000    0.58333333
    0.56250000    0.50000000    0.66666667
    0.56250000    0.50000000    0.75000000
    0.56250000    0.50000000    0.83333333
    0.56250000    0.50000000    0.91666667
    0.56250000    0.56250000    0.00000000
    0.56250000    0.56250000    0.08333333
    0.56250000    0.56250000    0.16666667
    0.56250000    0.56250000    0.25000000
    0.56250000    0.56250000    0.33333333
    0.56250000    0.56250000    0.41666667
    0.56250000    0.56250000    0.50000000
    0.56250000    0.56250000    0.58333333
    0.56250000    0.56250000    0.66666667
    0.56250000    0.56250000    0.75000000
    0.56250000    0.56250000    0.83333333
    0.56250000    0.56250000    0.91666667
    0.56250000    0.62500000    0.00000000
    0.56250000    0.62500000    0.08333333
    0.56250000    0.62500000    0.16666667
[...]
  2984  2985      0   0   0
  2984  2792      0   0   0
  2984  2804      0   0   0
  2984  2972      0   0   0
  2984  2996      0   0   0
  2984    92      1   0   0
  2984   104      1   0   0
  2985  2984      0   0   0
  2985  2986      0   0   0
  2985  2793      0   0   0
  2985  2805      0   0   0
  2985  2973      0   0   0
  2985  2997      0   0   0
  2985    93      1   0   0
  2985   105      1   0   0
  2986  2985      0   0   0
  2986  2987      0   0   0
  2986  2794      0   0   0
  2986  2806      0   0   0
  2986  2974      0   0   0
  2986  2998      0   0   0
  2986    94      1   0   0
  2986   106      1   0   0
  2987  2986      0   0   0
  2987  2988      0   0   0
  2987  2795      0   0   0
  2987  2807      0   0   0
  2987  2975      0   0   0
  2987  2999      0   0   0
  2987    95      1   0   0
  2987   107      1   0   0
  2988  2987      0   0   0
  2988  2977      0   0   1
  2988  2796      0   0   0
  2988  2808      0   0   0
  2988  2976      0   0   0
  2988  3000      0   0   0
  2988    96      1   0   0
  2988   108      1   0   0
  2989  2990      0   0   0
  2989  3000      0   0  -1
  2989  2797      0   0   0
  2989  2809      0   0   0
  2989  2977      0   0   0
  2989  3001      0   0   0
  2989    97      1   0   0
  2989   109      1   0   0
  2990  2989      0   0   0
  2990  2991      0   0   0
  2990  2798      0   0   0
  2990  2810      0   0   0
  2990  2978      0   0   0
  2990  3002      0   0   0
  2990    98      1   0   0
  2990   110      1   0   0
  2991  2990      0   0   0
  2991  2992      0   0   0
  2991  2799      0   0   0
  2991  2811      0   0   0
  2991  2979      0   0   0
  2991  3003      0   0   0
  2991    99      1   0   0
  2991   111      1   0   0
  2992  2991      0   0   0
  2992  2993      0   0   0
  2992  2800      0   0   0
  2992  2812      0   0   0
  2992  2980      0   0   0
  2992  3004      0   0   0
  2992   100      1   0   0
  2992   112      1   0   0
  2993  2992      0   0   0
  2993  2994      0   0   0
  2993  2801      0   0   0
  2993  2813      0   0   0
  2993  2981      0   0   0
  2993  3005      0   0   0
  2993   101      1   0   0
  2993   113      1   0   0
  2994  2993      0   0   0
  2994  2995      0   0   0
  2994  2802      0   0   0
  2994  2814      0   0   0
  2994  2982      0   0   0
  2994  3006      0   0   0
  2994   102      1   0   0
  2994   114      1   0   0
  2995  2994      0   0   0
  2995  2996      0   0   0
  2995  2803      0   0   0
  2995  2815      0   0   0
  2995  2983      0   0   0
  2995  3007      0   0   0
  2995   103      1   0   0
  2995   115      1   0   0
  2996  2995      0   0   0
  2996  2997      0   0   0
  2996  2804      0   0   0
  2996  2816      0   0   0
  2996  2984      0   0   0
  2996  3008      0   0   0
  2996   104      1   0   0
  2996   116      1   0   0
  2997  2996      0   0   0
  2997  2998      0   0   0
  2997  2805      0   0   0
  2997  2817      0   0   0
  2997  2985      0   0   0
  2997  3009      0   0   0
  2997   105      1   0   0
  2997   117      1   0   0
  2998  2997      0   0   0
  2998  2999      0   0   0
  2998  2806      0   0   0
  2998  2818      0   0   0
  2998  2986      0   0   0
  2998  3010      0   0   0
  2998   106      1   0   0
  2998   118      1   0   0
  2999  2998      0   0   0
  2999  3000      0   0   0
  2999  2807      0   0   0
  2999  2819      0   0   0
  2999  2987      0   0   0
  2999  3011      0   0   0
  2999   107      1   0   0
  2999   119      1   0   0
  3000  2999      0   0   0
  3000  2989      0   0   1
  3000  2808      0   0   0
  3000  2820      0   0   0
  3000  2988      0   0   0
  3000  3012      0   0   0
  3000   108      1   0   0
  3000   120      1   0   0
  3001  3002      0   0   0
  3001  3012      0   0  -1
  3001  2809      0   0   0
  3001  2821      0   0   0
  3001  2989      0   0   0
  3001  3013      0   0   0
  3001   109      1   0   0
  3001   121      1   0   0
  3002  3001      0   0   0
  3002  3003      0   0   0
  3002  2810      0   0   0
  3002  2822      0   0   0
  3002  2990      0   0   0
  3002  3014      0   0   0
  3002   110      1   0   0
  3002   122      1   0   0
  3003  3002      0   0   0
  3003  3004      0   0   0
  3003  2811      0   0   0
  3003  2823      0   0   0
  3003  2991      0   0   0
  3003  3015      0   0   0
  3003   111      1   0   0
  3003   123      1   0   0
  3004  3003      0   0   0
  3004  3005      0   0   0
  3004  2812      0   0   0
  3004  2824      0   0   0
  3004  2992      0   0   0
  3004  3016      0   0   0
  3004   112      1   0   0
  3004   124      1   0   0
  3005  3004      0   0   0
  3005  3006      0   0   0
  3005  2813      0   0   0
  3005  2825      0   0   0
  3005  2993      0   0   0
  3005  3017      0   0   0
  3005   113      1   0   0
  3005   125      1   0   0
  3006  3005      0   0   0
  3006  3007      0   0   0
  3006  2814      0   0   0
  3006  2826      0   0   0
  3006  2994      0   0   0
  3006  3018      0   0   0
  3006   114      1   0   0
  3006   126      1   0   0
  3007  3006      0   0   0
  3007  3008      0   0   0
  3007  2815      0   0   0
  3007  2827      0   0   0
  3007  2995      0   0   0
  3007  3019      0   0   0
  3007   115      1   0   0
  3007   127      1   0   0
  3008  3007      0   0   0
  3008  3009      0   0   0
  3008  2816      0   0   0
  3008  2828      0   0   0
  3008  2996      0   0   0
  3008  3020      0   0   0
  3008   116      1   0   0
  3008   128      1   0   0
  3009  3008      0   0   0
  3009  3010      0   0   0
  3009  2817      0   0   0
  3009  2829      0   0   0
  3009  2997      0   0   0
  3009  3021      0   0   0
  3009   117      1   0   0
  3009   129      1   0   0
  3010  3009      0   0   0
  3010  3011      0   0   0
  3010  2818      0   0   0
  3010  2830      0   0   0
  3010  2998      0   0   0
  3010  3022      0   0   0
  3010   118      1   0   0
  3010   130      1   0   0
  3011  3010      0   0   0
  3011  3012      0   0   0
  3011  2819      0   0   0
  3011  2831      0   0   0
  3011  2999      0   0   0
  3011  3023      0   0   0
  3011   119      1   0   0
  3011   131      1   0   0
  3012  3011      0   0   0
  3012  3001      0   0   1
  3012  2820      0   0   0
  3012  2832      0   0   0
  3012  3000      0   0   0
  3012  3024      0   0   0
  3012   120      1   0   0
  3012   132      1   0   0
  3013  3014      0   0   0
  3013  3024      0   0  -1
  3013  2821      0   0   0
  3013  2833      0   0   0
  3013  3001      0   0   0
  3013  3025      0   0   0
  3013   121      1   0   0
  3013   133      1   0   0
  3014  3013      0   0   0
  3014  3015      0   0   0
  3014  2822      0   0   0
  3014  2834      0   0   0
  3014  3002      0   0   0
  3014  3026      0   0   0
  3014   122      1   0   0
  3014   134      1   0   0
  3015  3014      0   0   0
  3015  3016      0   0   0
  3015  2823      0   0   0
  3015  2835      0   0   0
  3015  3003      0   0   0
  3015  3027      0   0   0
  3015   123      1   0   0
  3015   135      1   0   0
  3016  3015      0   0   0
  3016  3017      0   0   0
  3016  2824      0   0   0
  3016  2836      0   0   0
  3016  3004      0   0   0
  3016  3028      0   0   0
  3016   124      1   0   0
  3016   136      1   0   0
  3017  3016      0   0   0
  3017  3018      0   0   0
  3017  2825      0   0   0
  3017  2837      0   0   0
  3017  3005      0   0   0
  3017  3029      0   0   0
  3017   125      1   0   0
  3017   137      1   0   0
  3018  3017      0   0   0
  3018  3019      0   0   0
  3018  2826      0   0   0
  3018  2838      0   0   0
  3018  3006      0   0   0
  3018  3030      0   0   0
  3018   126      1   0   0
  3018   138      1   0   0
  3019  3018      0   0   0
  3019  3020      0   0   0
  3019  2827      0   0   0
  3019  2839      0   0   0
  3019  3007      0   0   0
  3019  3031      0   0   0
  3019   127      1   0   0
  3019   139      1   0   0
  3020  3019      0   0   0
  3020  3021      0   0   0
  3020  2828      0   0   0
  3020  2840      0   0   0
  3020  3008      0   0   0
  3020  3032      0   0   0
  3020   128      1   0   0
  3020   140      1   0   0
  3021  3020      0   0   0
  3021  3022      0   0   0
  3021  2829      0   0   0
  3021  2841      0   0   0
  3021  3009      0   0   0
  3021  3033      0   0   0
  3021   129      1   0   0
  3021   141      1   0   0
  3022  3021      0   0   0
  3022  3023      0   0   0
  3022  2830      0   0   0
  3022  2842      0   0   0
  3022  3010      0   0   0
  3022  3034      0   0   0
  3022   130      1   0   0
  3022   142      1   0   0
  3023  3022      0   0   0
  3023  3024      0   0   0
  3023  2831      0   0   0
  3023  2843      0   0   0
  3023  3011      0   0   0
  3023  3035      0   0   0
  3023   131      1   0   0
  3023   143      1   0   0
  3024  3023      0   0   0
  3024  3013      0   0   1
  3024  2832      0   0   0
  3024  2844      0   0   0
  3024  3012      0   0   0
  3024  3036      0   0   0
  3024   132      1   0   0
  3024   144      1   0   0
  3025  3026      0   0   0
  3025  3036      0   0  -1
  3025  2833      0   0   0
  3025  2845      0   0   0
  3025  3013      0   0   0
  3025  3037      0   0   0
  3025   133      1   0   0
  3025   145      1   0   0
  3026  3025      0   0   0
  3026  3027      0   0   0
  3026  2834      0   0   0
  3026  2846      0   0   0
  3026  3014      0   0   0
  3026  3038      0   0   0
  3026   134      1   0   0
  3026   146      1   0   0
  3027  3026      0   0   0
  3027  3028      0   0   0
  3027  2835      0   0   0
  3027  2847      0   0   0
  3027  3015      0   0   0
  3027  3039      0   0   0
  3027   135      1   0   0
  3027   147      1   0   0
  3028  3027      0   0   0
  3028  3029      0   0   0
  3028  2836      0   0   0
  3028  2848      0   0   0
  3028  3016      0   0   0
  3028  3040      0   0   0
  3028   136      1   0   0
  3028   148      1   0   0
  3029  3028      0   0   0
  3029  3030      0   0   0
  3029  2837      0   0   0
  3029  2849      0   0   0
  3029  3017      0   0   0
  3029  3041      0   0   0
  3029   137      1   0   0
  3029   149      1   0   0
  3030  3029      0   0   0
  3030  3031      0   0   0
  3030  2838      0   0   0
  3030  2850      0   0   0
  3030  3018      0   0   0
  3030  3042      0   0   0
  3030   138      1   0   0
  3030   150      1   0   0
  3031  3030      0   0   0
  3031  3032      0   0   0
  3031  2839      0   0   0
  3031  2851      0   0   0
  3031  3019      0   0   0
  3031  3043      0   0   0
  3031   139      1   0   0
  3031   151      1   0   0
  3032  3031      0   0   0
  3032  3033      0   0   0
  3032  2840      0   0   0
  3032  2852      0   0   0
  3032  3020      0   0   0
  3032  3044      0   0   0
  3032   140      1   0   0
  3032   152      1   0   0
  3033  3032      0   0   0
  3033  3034      0   0   0
  3033  2841      0   0   0
  3033  2853      0   0   0
  3033  3021      0   0   0
  3033  3045      0   0   0
  3033   141      1   0   0
  3033   153      1   0   0
  3034  3033      0   0   0
  3034  3035      0   0   0
  3034  2842      0   0   0
  3034  2854      0   0   0
  3034  3022      0   0   0
  3034  3046      0   0   0
  3034   142      1   0   0
  3034   154      1   0   0
  3035  3034      0   0   0
  3035  3036      0   0   0
  3035  2843      0   0   0
  3035  2855      0   0   0
  3035  3023      0   0   0
  3035  3047      0   0   0
  3035   143      1   0   0
  3035   155      1   0   0
  3036  3035      0   0   0
  3036  3025      0   0   1
  3036  2844      0   0   0
  3036  2856      0   0   0
  3036  3024      0   0   0
  3036  3048      0   0   0
  3036   144      1   0   0
  3036   156      1   0   0
  3037  3038      0   0   0
  3037  3048      0   0  -1
  3037  2845      0   0   0
  3037  2857      0   0   0
  3037  3025      0   0   0
  3037  3049      0   0   0
  3037   145      1   0   0
  3037   157      1   0   0
  3038  3037      0   0   0
  3038  3039      0   0   0
  3038  2846      0   0   0
  3038  2858      0   0   0
  3038  3026      0   0   0
  3038  3050      0   0   0
  3038   146      1   0   0
  3038   158      1   0   0
  3039  3038      0   0   0
  3039  3040      0   0   0
  3039  2847      0   0   0
  3039  2859      0   0   0
  3039  3027      0   0   0
  3039  3051      0   0   0
  3039   147      1   0   0
  3039   159      1   0   0
  3040  3039      0   0   0
  3040  3041      0   0   0
  3040  2848      0   0   0
  3040  2860      0   0   0
  3040  3028      0   0   0
  3040  3052      0   0   0
  3040   148      1   0   0
  3040   160      1   0   0
  3041  3040      0   0   0
  3041  3042      0   0   0
  3041  2849      0   0   0
  3041  2861      0   0   0
  3041  3029      0   0   0
  3041  3053      0   0   0
  3041   149      1   0   0
  3041   161      1   0   0
  3042  3041      0   0   0
  3042  3043      0   0   0
  3042  2850      0   0   0
  3042  2862      0   0   0
  3042  3030      0   0   0
  3042  3054      0   0   0
  3042   150      1   0   0
  3042   162      1   0   0
  3043  3042      0   0   0
  3043  3044      0   0   0
  3043  2851      0   0   0
  3043  2863      0   0   0
  3043  3031      0   0   0
  3043  3055      0   0   0
  3043   151      1   0   0
  3043   163      1   0   0
  3044  3043      0   0   0
  3044  3045      0   0   0
  3044  2852      0   0   0
  3044  2864      0   0   0
  3044  3032      0   0   0
  3044  3056      0   0   0
  3044   152      1   0   0
  3044   164      1   0   0
  3045  3044      0   0   0
  3045  3046      0   0   0
  3045  2853      0   0   0
  3045  2865      0   0   0
  3045  3033      0   0   0
  3045  3057      0   0   0
  3045   153      1   0   0
  3045   165      1   0   0
  3046  3045      0   0   0
  3046  3047      0   0   0
  3046  2854      0   0   0
  3046  2866      0   0   0
  3046  3034      0   0   0
  3046  3058      0   0   0
  3046   154      1   0   0
  3046   166      1   0   0
  3047  3046      0   0   0
  3047  3048      0   0   0
  3047  2855      0   0   0
  3047  2867      0   0   0
  3047  3035      0   0   0
  3047  3059      0   0   0
  3047   155      1   0   0
  3047   167      1   0   0
  3048  3047      0   0   0
  3048  3037      0   0   1
  3048  2856      0   0   0
  3048  2868      0   0   0
  3048  3036      0   0   0
  3048  3060      0   0   0
  3048   156      1   0   0
  3048   168      1   0   0
  3049  3050      0   0   0
  3049  3060      0   0  -1
  3049  2857      0   0   0
  3049  2869      0   0   0
  3049  3037      0   0   0
  3049  3061      0   0   0
  3049   157      1   0   0
  3049   169      1   0   0
  3050  3049      0   0   0
  3050  3051      0   0   0
  3050  2858      0   0   0
  3050  2870      0   0   0
  3050  3038      0   0   0
  3050  3062      0   0   0
  3050   158      1   0   0
  3050   170      1   0   0
  3051  3050      0   0   0
  3051  3052      0   0   0
  3051  2859      0   0   0
  3051  2871      0   0   0
  3051  3039      0   0   0
  3051  3063      0   0   0
  3051   159      1   0   0
  3051   171      1   0   0
  3052  3051      0   0   0
  3052  3053      0   0   0
  3052  2860      0   0   0
  3052  2872      0   0   0
  3052  3040      0   0   0
  3052  3064      0   0   0
  3052   160      1   0   0
  3052   172      1   0   0
  3053  3052      0   0   0
  3053  3054      0   0   0
  3053  2861      0   0   0
  3053  2873      0   0   0
  3053  3041      0   0   0
  3053  3065      0   0   0
  3053   161      1   0   0
  3053   173      1   0   0
  3054  3053      0   0   0
  3054  3055      0   0   0
  3054  2862      0   0   0
  3054  2874      0   0   0
  3054  3042      0   0   0
  3054  3066      0   0   0
  3054   162      1   0   0
  3054   174      1   0   0
  3055  3054      0   0   0
  3055  3056      0   0   0
  3055  2863      0   0   0
  3055  2875      0   0   0
  3055  3043      0   0   0
  3055  3067      0   0   0
  3055   163      1   0   0
  3055   175      1   0   0
  3056  3055      0   0   0
  3056  3057      0   0   0
  3056  2864      0   0   0
  3056  2876      0   0   0
  3056  3044      0   0   0
  3056  3068      0   0   0
  3056   164      1   0   0
  3056   176      1   0   0
  3057  3056      0   0   0
  3057  3058      0   0   0
  3057  2865      0   0   0
  3057  2877      0   0   0
  3057  3045      0   0   0
  3057  3069      0   0   0
  3057   165      1   0   0
  3057   177      1   0   0
  3058  3057      0   0   0
  3058  3059      0   0   0
  3058  2866      0   0   0
  3058  2878      0   0   0
  3058  3046      0   0   0
  3058  3070      0   0   0
  3058   166      1   0   0
  3058   178      1   0   0
  3059  3058      0   0   0
  3059  3060      0   0   0
  3059  2867      0   0   0
  3059  2879      0   0   0
  3059  3047      0   0   0
  3059  3071      0   0   0
  3059   167      1   0   0
  3059   179      1   0   0
  3060  3059      0   0   0
  3060  3049      0   0   1
  3060  2868      0   0   0
  3060  2880      0   0   0
  3060  3048      0   0   0
  3060  3072      0   0   0
  3060   168      1   0   0
  3060   180      1   0   0
  3061  3062      0   0   0
  3061  3072      0   0  -1
  3061  2869      0   0   0
  3061  3049      0   0   0
  3061  2689      0   1   0
  3061  2881      0   1   0
  3061   169      1   0   0
  3061   181      1   0   0
  3062  3061      0   0   0
  3062  3063      0   0   0
  3062  2870      0   0   0
  3062  3050      0   0   0
  3062  2690      0   1   0
  3062  2882      0   1   0
  3062   170      1   0   0
  3062   182      1   0   0
  3063  3062      0   0   0
  3063  3064      0   0   0
  3063  2871      0   0   0
  3063  3051      0   0   0
  3063  2691      0   1   0
  3063  2883      0   1   0
  3063   171      1   0   0
  3063   183      1   0   0
  3064  3063      0   0   0
  3064  3065      0   0   0
  3064  2872      0   0   0
  3064  3052      0   0   0
  3064  2692      0   1   0
  3064  2884      0   1   0
  3064   172      1   0   0
  3064   184      1   0   0
  3065  3064      0   0   0
  3065  3066      0   0   0
  3065  2873      0   0   0
  3065  3053      0   0   0
  3065  2693      0   1   0
  3065  2885      0   1   0
  3065   173      1   0   0
  3065   185      1   0   0
  3066  3065      0   0   0
  3066  3067      0   0   0
  3066  2874      0   0   0
  3066  3054      0   0   0
  3066  2694      0   1   0
  3066  2886      0   1   0
  3066   174      1   0   0
  3066   186      1   0   0
  3067  3066      0   0   0
  3067  3068      0   0   0
  3067  2875      0   0   0
  3067  3055      0   0   0
  3067  2695      0   1   0
  3067  2887      0   1   0
  3067   175      1   0   0
  3067   187      1   0   0
  3068  3067      0   0   0
  3068  3069      0   0   0
  3068  2876      0   0   0
  3068  3056      0   0   0
  3068  2696      0   1   0
  3068  2888      0   1   0
  3068   176      1   0   0
  3068   188      1   0   0
  3069  3068      0   0   0
  3069  3070      0   0   0
  3069  2877      0   0   0
  3069  3057      0   0   0
  3069  2697      0   1   0
  3069  2889      0   1   0
  3069   177      1   0   0
  3069   189      1   0   0
  3070  3069      0   0   0
  3070  3071      0   0   0
  3070  2878      0   0   0
  3070  3058      0   0   0
  3070  2698      0   1   0
  3070  2890      0   1   0
  3070   178      1   0   0
  3070   190      1   0   0
  3071  3070      0   0   0
  3071  3072      0   0   0
  3071  2879      0   0   0
  3071  3059      0   0   0
  3071  2699      0   1   0
  3071  2891      0   1   0
  3071   179      1   0   0
  3071   191      1   0   0
  3072  3071      0   0   0
  3072  3061      0   0   1
  3072  2880      0   0   0
  3072  3060      0   0   0
  3072  2700      0   1   0
  3072  2892      0   1   0
  3072   180      1   0   0
  3072   192      1   0   0
end nnkpts

begin exclude_bands
   6
   1
   2
   3
   4
   5
   6
end exclude_bands
